 Gaussian 16, Revision C.01,
 Gaussian 16:  ES64L-G16RevC.01  3-Jul-2019

 -----------------------------------------
 # B3LYP/3-21G* Geom=Chk Guess=CopyChk Opt
 -----------------------------------------

 ---
 CLR
 ---
 Structure from the checkpoint file:  "6WZ3_small_opt3.chk"
 Charge =  0 Multiplicity = 1

 SCF Done:  E(RB3LYP) =  -2020.44271211     A.U. after   13 cycles
 SCF Done:  E(RB3LYP) =  -2020.44831473     A.U. after   14 cycles
 SCF Done:  E(RB3LYP) =  -2020.45605460     A.U. after   15 cycles
 SCF Done:  E(RB3LYP) =  -2020.45972063     A.U. after   13 cycles
 SCF Done:  E(RB3LYP) =  -2020.46065576     A.U. after   13 cycles
 SCF Done:  E(RB3LYP) =  -2020.46146533     A.U. after   15 cycles
 SCF Done:  E(RB3LYP) =  -2020.46276809     A.U. after   13 cycles
 SCF Done:  E(RB3LYP) =  -2020.46192841     A.U. after   12 cycles
 SCF Done:  E(RB3LYP) =  -2020.46284109     A.U. after   12 cycles
 SCF Done:  E(RB3LYP) =  -2020.46278768     A.U. after   12 cycles
 SCF Done:  E(RB3LYP) =  -2020.46895240     A.U. after   10 cycles
 SCF Done:  E(RB3LYP) =  -2020.46895683     A.U. after   10 cycles
 SCF Done:  E(RB3LYP) =  -2020.46896077     A.U. after   10 cycles
 SCF Done:  E(RB3LYP) =  -2020.46896244     A.U. after    8 cycles
 SCF Done:  E(RB3LYP) =  -2020.46896333     A.U. after    8 cycles
 SCF Done:  E(RB3LYP) =  -2020.46896357     A.U. after    8 cycles
 SCF Done:  E(RB3LYP) =  -2020.46896366     A.U. after    7 cycles
 SCF Done:  E(RB3LYP) =  -2020.46896373     A.U. after    7 cycles
 SCF Done:  E(RB3LYP) =  -2020.46896377     A.U. after    6 cycles
 SCF Done:  E(RB3LYP) =  -2020.46896383     A.U. after    6 cycles
 Optimization completed.
    -- Stationary point found.

                         Standard orientation:
 ---------------------------------------------------------------------
 Center     Atomic      Atomic             Coordinates (Angstroms)
 Number     Number       Type             X           Y           Z
 ---------------------------------------------------------------------
      1          8           0       -0.587310    3.177938   -1.961839
      2          8           0       -1.097634    1.999294    1.182433
      3          8           0       -1.938288   -0.519914   -0.084479
      4          8           0       -0.987488   -2.722192    1.147485
      5          8           0        1.749423    2.550876   -3.102684
      6          8           0        4.248377   -1.390908   -0.009024
      7          8           0        2.911851   -1.027019   -2.193604
      8          8           0        0.412912    1.383710    3.441315
      9          8           0       -3.364992    2.338766    0.836167
     10          8           0       -1.986572   -1.881761   -1.959093
     11          8           0        5.368659    0.306121   -1.082230
     12          6           0        0.286437    0.659567   -0.274451
     13          6           0       -0.627445    1.891859   -0.228370
     14          6           0        1.250857    0.601794   -1.518518
     15          6           0        0.132025    3.185705   -0.622128
     16          6           0       -0.446886   -0.701355   -0.059466
     17          6           0       -0.125307   -1.537037    1.221061
     18          6           0        2.014347    2.010454   -1.788420
     19          6           0        1.639156    3.071279   -0.737796
     20          6           0        1.332221   -2.079828    1.187414
     21          6           0       -1.578211    2.151331   -1.425806
     22          6           0        2.417263   -0.387809   -1.264822
     23          6           0       -0.386008   -0.819088    2.562536
     24          6           0        2.233839   -0.840892    1.283593
     25          6           0        0.574303    0.174391   -2.842380
     26          6           0        3.126403   -0.446275    0.135741
     27          6           0        0.805565   -0.015349    3.181769
     28          6           0        2.062472    0.016597    2.309805
     29          6           0        1.576835   -2.990067    2.427517
     30          6           0        1.588970   -2.988110   -0.041002
     31          6           0        2.973142    1.196343    2.611991
     32          6           0       -2.403939    2.300094    1.592924
     33          6           0       -2.593138   -1.274523   -1.078959
     34          6           0       -2.415452    2.579546    3.079420
     35          6           0        5.304935   -0.876513   -0.767126
     36          6           0       -4.062408   -1.269675   -0.922454
     37          6           0        6.270630   -1.984317   -1.093616
     38          6           0       -4.776397   -2.196731   -1.696055
     39          6           0       -4.737786   -0.388793   -0.070417
     40          6           0       -6.162063   -2.264698   -1.595062
     41          6           0       -6.128552   -0.453842    0.016086
     42          6           0       -6.839706   -1.394510   -0.734017
     43          1           0        0.924080    0.798188    0.591348
     44          1           0       -0.195031    4.037122   -0.019243
     45          1           0       -0.243861   -1.364839   -0.892969
     46          1           0        3.092046    1.822058   -1.763784
     47          1           0        2.043169    2.830835    0.252278
     48          1           0        2.075330    4.021209   -1.062000
     49          1           0       -1.706399    1.322434   -2.114072
     50          1           0       -2.517556    2.614833   -1.148643
     51          1           0       -0.683661   -1.606704    3.259219
     52          1           0       -1.232458   -0.142647    2.440315
     53          1           0       -0.019586    0.987279   -3.251509
     54          1           0        1.355757   -0.064109   -3.562249
     55          1           0       -0.062549   -0.702473   -2.713098
     56          1           0        3.544021    0.550172    0.300074
     57          1           0        1.038652   -0.410814    4.175092
     58          1           0        2.567532   -3.446831    2.339089
     59          1           0        1.545622   -2.432262    3.365851
     60          1           0        0.812097   -3.770517    2.443680
     61          1           0        2.653182   -3.228919   -0.088208
     62          1           0        0.994665   -3.895789    0.081629
     63          1           0        1.314008   -2.540058   -0.994229
     64          1           0       -1.921667   -2.389604    1.233443
     65          1           0        0.803970    2.891494   -3.045510
     66          1           0        2.621818    2.122499    2.141688
     67          1           0        2.972493    1.383532    3.689441
     68          1           0        3.998719    1.004238    2.288724
     69          1           0        0.068474    1.737373    2.568589
     70          1           0       -3.400014    2.330938    3.478422
     71          1           0       -1.616535    2.037643    3.589128
     72          1           0       -2.248130    3.654310    3.231280
     73          1           0        5.809616   -2.617648   -1.860043
     74          1           0        6.450610   -2.598899   -0.208726
     75          1           0        7.200751   -1.564093   -1.475403
     76          1           0       -4.223469   -2.849541   -2.359720
     77          1           0       -4.191531    0.375520    0.460916
     78          1           0       -6.714373   -2.986323   -2.184830
     79          1           0       -6.658059    0.236604    0.661714
     80          1           0       -7.919842   -1.442776   -0.657193
 ---------------------------------------------------------------------

 The electronic state is 1-A.
 Alpha  occ. eigenvalues --  -19.12157 -19.09998 -19.07835 -19.06948 -19.06780
 Alpha  occ. eigenvalues --  -19.05244 -19.04534 -19.03711 -19.03448 -19.03317
 Alpha  occ. eigenvalues --  -19.00910 -10.29734 -10.27557 -10.25920 -10.23278
 Alpha  occ. eigenvalues --  -10.22614 -10.20607 -10.20037 -10.19606 -10.19527
 Alpha  occ. eigenvalues --  -10.19365 -10.19092 -10.18497 -10.16005 -10.15929
 Alpha  occ. eigenvalues --  -10.15870 -10.14985 -10.14852 -10.14795 -10.14771
 Alpha  occ. eigenvalues --  -10.14766 -10.14677 -10.14534 -10.14508 -10.14389
 Alpha  occ. eigenvalues --  -10.14240 -10.13105 -10.12981 -10.12787 -10.10741
 Alpha  occ. eigenvalues --  -10.09865 -10.09661  -1.12686  -1.11102  -1.10185
 Alpha  occ. eigenvalues --   -1.06224  -1.06072  -1.04485  -1.03747  -1.01628
 Alpha  occ. eigenvalues --   -1.01424  -1.01092  -0.99539  -0.88147  -0.87563
 Alpha  occ. eigenvalues --   -0.85099  -0.80690  -0.79931  -0.79286  -0.78585
 Alpha  occ. eigenvalues --   -0.78125  -0.76703  -0.76198  -0.75895  -0.74257
 Alpha  occ. eigenvalues --   -0.73003  -0.70057  -0.68856  -0.68832  -0.67721
 Alpha  occ. eigenvalues --   -0.67222  -0.65147  -0.64465  -0.63411  -0.62723
 Alpha  occ. eigenvalues --   -0.61064  -0.60456  -0.57871  -0.57614  -0.56529
 Alpha  occ. eigenvalues --   -0.55552  -0.54785  -0.54057  -0.53016  -0.52649
 Alpha  occ. eigenvalues --   -0.51750  -0.51205  -0.51086  -0.50212  -0.49905
 Alpha  occ. eigenvalues --   -0.48708  -0.48413  -0.47902  -0.47847  -0.47729
 Alpha  occ. eigenvalues --   -0.47615  -0.46903  -0.46708  -0.46624  -0.46198
 Alpha  occ. eigenvalues --   -0.45632  -0.45480  -0.45153  -0.44894  -0.44695
 Alpha  occ. eigenvalues --   -0.44312  -0.44202  -0.43903  -0.43257  -0.42538
 Alpha  occ. eigenvalues --   -0.42353  -0.42222  -0.41619  -0.41404  -0.41046
 Alpha  occ. eigenvalues --   -0.40888  -0.40511  -0.40167  -0.39827  -0.38802
 Alpha  occ. eigenvalues --   -0.38523  -0.38082  -0.38018  -0.37710  -0.37570
 Alpha  occ. eigenvalues --   -0.37379  -0.37269  -0.36628  -0.36431  -0.36234
 Alpha  occ. eigenvalues --   -0.35886  -0.35575  -0.35220  -0.35158  -0.34773
 Alpha  occ. eigenvalues --   -0.34558  -0.33405  -0.33308  -0.32597  -0.31745
 Alpha  occ. eigenvalues --   -0.31550  -0.30912  -0.30591  -0.29889  -0.29358
 Alpha  occ. eigenvalues --   -0.29276  -0.28773  -0.27270  -0.27247  -0.27136
 Alpha  occ. eigenvalues --   -0.26967  -0.26361  -0.26012  -0.25574  -0.24168
 Alpha  occ. eigenvalues --   -0.23432
 Alpha virt. eigenvalues --   -0.05925  -0.03572  -0.02721  -0.01204  -0.01099
 Alpha virt. eigenvalues --    0.01053   0.03117   0.04084   0.06299   0.07507
 Alpha virt. eigenvalues --    0.07911   0.09743   0.10300   0.10367   0.11167

 Mulliken charges:
               1
     1  O   -0.465193
     2  O   -0.538012
     3  O   -0.522527
     4  O   -0.546891
     5  O   -0.555883
     6  O   -0.492427
     7  O   -0.440521
     8  O   -0.557637
     9  O   -0.462064
    10  O   -0.473920
    11  O   -0.487162
    12  C   -0.271856
    13  C    0.099877
    14  C   -0.264748
    15  C    0.086191
    16  C    0.015042
    17  C    0.210736
    18  C    0.070295
    19  C   -0.466893
    20  C   -0.219811
    21  C   -0.125550
    22  C    0.537907
    23  C   -0.418099
    24  C    0.072889
    25  C   -0.536229
    26  C   -0.122505
    27  C   -0.025040
    28  C   -0.002088
    29  C   -0.497672
    30  C   -0.548716
    31  C   -0.600651
    32  C    0.667168
    33  C    0.675118
    34  C   -0.674221
    35  C    0.656417
    36  C   -0.115468
    37  C   -0.637108
    38  C   -0.157067
    39  C   -0.204464
    40  C   -0.184642
    41  C   -0.185603
    42  C   -0.174272
    43  H    0.273328
    44  H    0.216328
    45  H    0.285656
    46  H    0.242804
    47  H    0.217091
    48  H    0.236903
    49  H    0.229728
    50  H    0.253980
    51  H    0.220422
    52  H    0.213548
    53  H    0.183800
    54  H    0.235706
    55  H    0.206648
    56  H    0.250163
    57  H    0.225940
    58  H    0.198029
    59  H    0.183064
    60  H    0.210272
    61  H    0.211606
    62  H    0.212843
    63  H    0.200801
    64  H    0.343788
    65  H    0.358509
    66  H    0.211066
    67  H    0.224937
    68  H    0.204429
    69  H    0.353369
    70  H    0.232681
    71  H    0.253734
    72  H    0.241659
    73  H    0.251645
    74  H    0.229026
    75  H    0.225336
    76  H    0.219572
    77  H    0.230392
    78  H    0.198385
    79  H    0.198024
    80  H    0.198090
 Sum of Mulliken charges =  -0.00000

 Dipole moment (field-independent basis, Debye):
    X=             -3.6792    Y=              0.5037    Z=              5.1525  Tot=              6.3513
 Quadrupole moment (field-independent basis, Debye-Ang):
   XX=           -227.1238   YY=           -245.9158   ZZ=           -261.1045
   XY=             -4.0729   XZ=              7.2657   YZ=             10.1864

 Normal termination of Gaussian 16 at Sun Mar 26 17:09:25 2023.
