 Gaussian 16, Revision C.01,
 Gaussian 16:  ES64L-G16RevC.01  3-Jul-2019

 ----------------------------------------
 # HF/3-21G* Geom=PrintInputOrient SCF=QC
 ----------------------------------------

 ---
 CLR
 ---
 Symbolic Z-matrix:
 Charge =  0 Multiplicity = 1

                         Standard orientation:
 ---------------------------------------------------------------------
 Center     Atomic      Atomic             Coordinates (Angstroms)
 Number     Number       Type             X           Y           Z
 ---------------------------------------------------------------------
      1          8           0       -0.152920    3.822274   -1.215016
      2          8           0       -1.655173    1.673662    0.715365
      3          8           0       -1.886538   -0.201285   -0.952117
      4          8           0       -1.070363   -2.817338   -0.906190
      5          8           0        2.741418    3.327712   -1.505111
      6          8           0        4.201927   -1.447422    0.552830
      7          8           0        3.631637   -0.210525   -1.719634
      8          8           0       -0.816680   -0.304923    3.032130
      9          8           0       -2.927250    3.600794    0.641109
     10          8           0       -2.267591   -2.008228   -2.325654
     11          8           0        5.621745    0.355793    0.288821
     12          6           0        0.306315    0.779453   -0.312015
     13          6           0       -0.631394    2.009851   -0.206502
     14          6           0        1.695985    1.118080   -1.021334
     15          6           0        0.051028    3.334140    0.139407
     16          6           0       -0.478592   -0.484976   -0.836255
     17          6           0       -0.342951   -1.876214   -0.080738
     18          6           0        2.344030    2.443594   -0.450917
     19          6           0        1.503187    3.234055    0.549709
     20          6           0        1.124408   -2.402772    0.043048
     21          6           0       -1.171271    2.799777   -1.411738
     22          6           0        2.820445    0.031114   -0.815746
     23          6           0       -1.031543   -1.945241    1.306966
     24          6           0        1.838257   -1.434141    1.005979
     25          6           0        1.532817    1.234430   -2.567549
     26          6           0        3.036656   -0.640707    0.549152
     27          6           0       -0.182799   -1.476322    2.500203
     28          6           0        1.266810   -1.144299    2.206953
     29          6           0        1.196218   -3.824574    0.689958
     30          6           0        1.722103   -2.643808   -1.369177
     31          6           0        1.961334   -0.375340    3.306103
     32          6           0       -2.295968    2.739796    1.238496
     33          6           0       -2.634267   -1.188240   -1.498252
     34          6           0       -2.112621    2.715091    2.725864
     35          6           0        5.357733   -0.831070    0.154574
     36          6           0       -4.012602   -1.148581   -0.947501
     37          6           0        6.277005   -1.827509   -0.482232
     38          6           0       -4.725397   -2.325732   -0.848616
     39          6           0       -4.538191    0.063104   -0.550462
     40          6           0       -6.020168   -2.288953   -0.330570
     41          6           0       -5.831947    0.099890   -0.033401
     42          6           0       -6.572952   -1.075633    0.077038
     43          1           0        0.561223    0.602299    0.725248
     44          1           0       -0.429415    4.032297    0.832578
     45          1           0       -0.168010   -0.651455   -1.869680
     46          1           0        3.284033    2.209337    0.060324
     47          1           0        1.559646    2.746458    1.530822
     48          1           0        1.919760    4.242509    0.670484
     49          1           0       -1.079512    2.297052   -2.377276
     50          1           0       -2.173689    3.230549   -1.403270
     51          1           0       -1.330380   -2.982410    1.510393
     52          1           0       -1.988418   -1.410007    1.283817
     53          1           0        0.873135    2.043612   -2.872664
     54          1           0        2.492693    1.435866   -3.060624
     55          1           0        1.169681    0.310713   -3.023634
     56          1           0        3.229035    0.195691    1.228782
     57          1           0       -0.222611   -2.231140    3.294149
     58          1           0        2.241414   -4.151421    0.768860
     59          1           0        0.782985   -3.875330    1.700530
     60          1           0        0.673010   -4.578021    0.090303
     61          1           0        2.786238   -2.897537   -1.309902
     62          1           0        1.228087   -3.484510   -1.872285
     63          1           0        1.616379   -1.796134   -2.044459
     64          1           0       -1.140514   -3.666929   -0.441587
     65          1           0        1.943205    3.763762   -1.848686
     66          1           0        1.695157    0.684515    3.265874
     67          1           0        1.667977   -0.769369    4.285756
     68          1           0        3.051114   -0.471890    3.260790
     69          1           0       -0.876226    0.349069    2.318951
     70          1           0       -2.507313    3.642477    3.151428
     71          1           0       -2.664497    1.874151    3.152062
     72          1           0       -1.051961    2.652835    2.980741
     73          1           0        5.782298   -2.293632   -1.339081
     74          1           0        6.568224   -2.583025    0.249721
     75          1           0        7.176080   -1.317367   -0.838043
     76          1           0       -4.302975   -3.277141   -1.158439
     77          1           0       -3.993898    0.996088   -0.649858
     78          1           0       -6.596583   -3.205685   -0.243866
     79          1           0       -6.265304    1.046120    0.278321
     80          1           0       -7.581770   -1.046078    0.478480
 ---------------------------------------------------------------------

 SCF Done:  E(RHF) =  -2008.13011593     a.u. after    9 cycles

 The electronic state is 1-A.
 Alpha  occ. eigenvalues --  -20.52972 -20.51236 -20.50662 -20.48815 -20.48240
 Alpha  occ. eigenvalues --  -20.48101 -20.45626 -20.45407 -20.45278 -20.44364
 Alpha  occ. eigenvalues --  -20.43773 -11.36446 -11.34062 -11.32124 -11.31111
 Alpha  occ. eigenvalues --  -11.29465 -11.27619 -11.27536 -11.26898 -11.26186
 Alpha  occ. eigenvalues --  -11.25466 -11.25153 -11.24073 -11.24054 -11.23951
 Alpha  occ. eigenvalues --  -11.21852 -11.21722 -11.21682 -11.19955 -11.19819
 Alpha  occ. eigenvalues --  -11.19457 -11.19298 -11.19262 -11.19037 -11.18928
 Alpha  occ. eigenvalues --  -11.18809 -11.18781 -11.18775 -11.18115 -11.17788
 Alpha  occ. eigenvalues --  -11.16754 -11.16609  -1.50550  -1.47422  -1.46861
 Alpha  occ. eigenvalues --   -1.42305  -1.41054  -1.40154  -1.37734  -1.37166
 Alpha  occ. eigenvalues --   -1.37118  -1.35616  -1.35574  -1.17715  -1.17101
 Alpha  occ. eigenvalues --   -1.14873  -1.09241  -1.07771  -1.07707  -1.06409
 Alpha  occ. eigenvalues --   -1.04966  -1.03521  -1.03011  -1.02581  -1.00530
 Alpha  occ. eigenvalues --   -0.99777  -0.95462  -0.95292  -0.94450  -0.93706
 Alpha  occ. eigenvalues --   -0.91665  -0.89173  -0.87364  -0.85583  -0.84372
 Alpha  occ. eigenvalues --   -0.83652  -0.82911  -0.80596  -0.79380  -0.77300
 Alpha  occ. eigenvalues --   -0.76454  -0.74948  -0.74431  -0.73546  -0.73087
 Alpha  occ. eigenvalues --   -0.71629  -0.70875  -0.70437  -0.69772  -0.68701
 Alpha  occ. eigenvalues --   -0.68452  -0.68026  -0.67014  -0.66758  -0.66255
 Alpha  occ. eigenvalues --   -0.66031  -0.65705  -0.65160  -0.65033  -0.63952
 Alpha  occ. eigenvalues --   -0.63709  -0.63295  -0.63117  -0.62612  -0.61864
 Alpha  occ. eigenvalues --   -0.61688  -0.61003  -0.60606  -0.60225  -0.59973
 Alpha  occ. eigenvalues --   -0.59603  -0.59106  -0.58728  -0.58258  -0.57600
 Alpha  occ. eigenvalues --   -0.57507  -0.56781  -0.56459  -0.55762  -0.55645
 Alpha  occ. eigenvalues --   -0.55250  -0.54919  -0.54150  -0.53713  -0.53443
 Alpha  occ. eigenvalues --   -0.53337  -0.52592  -0.52426  -0.52180  -0.52039
 Alpha  occ. eigenvalues --   -0.51915  -0.51182  -0.50917  -0.50625  -0.50189
 Alpha  occ. eigenvalues --   -0.49746  -0.49623  -0.49117  -0.48441  -0.48149
 Alpha  occ. eigenvalues --   -0.47623  -0.47160  -0.46660  -0.46153  -0.44696
 Alpha  occ. eigenvalues --   -0.44276  -0.43918  -0.43319  -0.43046  -0.42193
 Alpha  occ. eigenvalues --   -0.41941  -0.40297  -0.38861  -0.35280  -0.34704
 Alpha  occ. eigenvalues --   -0.34026
 Alpha virt. eigenvalues --    0.10316   0.10751   0.13692   0.13968   0.14340
 Alpha virt. eigenvalues --    0.17627   0.17794   0.20642   0.21924   0.22095
 Alpha virt. eigenvalues --    0.23811   0.24100   0.24725   0.25613   0.25912

 Mulliken charges:
               1
     1  O   -0.640226
     2  O   -0.709406
     3  O   -0.720072
     4  O   -0.651191
     5  O   -0.670585
     6  O   -0.695329
     7  O   -0.556155
     8  O   -0.692784
     9  O   -0.572926
    10  O   -0.561706
    11  O   -0.607737
    12  C   -0.329186
    13  C    0.161313
    14  C   -0.360938
    15  C    0.111993
    16  C    0.157927
    17  C    0.244945
    18  C    0.157562
    19  C   -0.487285
    20  C   -0.294234
    21  C   -0.030930
    22  C    0.639044
    23  C   -0.432741
    24  C    0.020372
    25  C   -0.535028
    26  C   -0.012689
    27  C    0.061434
    28  C   -0.052327
    29  C   -0.513418
    30  C   -0.545711
    31  C   -0.591306
    32  C    0.838531
    33  C    0.951515
    34  C   -0.677747
    35  C    0.865880
    36  C   -0.211309
    37  C   -0.673890
    38  C   -0.200832
    39  C   -0.206789
    40  C   -0.236076
    41  C   -0.238345
    42  C   -0.231671
    43  H    0.275780
    44  H    0.259004
    45  H    0.293478
    46  H    0.274493
    47  H    0.208406
    48  H    0.270565
    49  H    0.218213
    50  H    0.291125
    51  H    0.214921
    52  H    0.280067
    53  H    0.215347
    54  H    0.278189
    55  H    0.206944
    56  H    0.274804
    57  H    0.245227
    58  H    0.234932
    59  H    0.199631
    60  H    0.187379
    61  H    0.224424
    62  H    0.232691
    63  H    0.212290
    64  H    0.380482
    65  H    0.401810
    66  H    0.211597
    67  H    0.237217
    68  H    0.227005
    69  H    0.394949
    70  H    0.248456
    71  H    0.280732
    72  H    0.227926
    73  H    0.258504
    74  H    0.239071
    75  H    0.247132
    76  H    0.267041
    77  H    0.278007
    78  H    0.242122
    79  H    0.245434
    80  H    0.244658
 Sum of Mulliken charges =   0.00000

 Dipole moment (field-independent basis, Debye):
    X=             -2.2197    Y=             -3.5103    Z=              5.6225  Tot=              6.9901
 Quadrupole moment (field-independent basis, Debye-Ang):
   XX=           -264.3213   YY=           -247.7432   ZZ=           -260.1334
   XY=            -10.0821   XZ=             -0.0633   YZ=              2.8453

 Normal termination of Gaussian 16 at Sun Mar 26 15:27:08 2023.
