 Gaussian 16, Revision C.01,
 Gaussian 16:  ES64L-G16RevC.01  3-Jul-2019

 --------------------------------------
 # HF/3-21G* Geom=Chk Guess=CopyChk Opt
 --------------------------------------

 ---
 CLR
 ---
 Structure from the checkpoint file:  "6WZ3_small_opt2.chk"
 Charge =  0 Multiplicity = 1

 SCF Done:  E(RHF) =  -2008.13011593     A.U. after    1 cycles
 SCF Done:  E(RHF) =  -2008.18729718     A.U. after   17 cycles
 SCF Done:  E(RHF) =  -2008.21968673     A.U. after   16 cycles
 SCF Done:  E(RHF) =  -2008.24273361     A.U. after   16 cycles
 SCF Done:  E(RHF) =  -2008.23919767     A.U. after   16 cycles
 SCF Done:  E(RHF) =  -2008.24603603     A.U. after   15 cycles
 SCF Done:  E(RHF) =  -2008.26067987     A.U. after   16 cycles
 SCF Done:  E(RHF) =  -2008.26139577     A.U. after   16 cycles
 SCF Done:  E(RHF) =  -2008.26824080     A.U. after   14 cycles
 SCF Done:  E(RHF) =  -2008.26826617     A.U. after   14 cycles
 SCF Done:  E(RHF) =  -2008.27306420     A.U. after   10 cycles
 SCF Done:  E(RHF) =  -2008.27306496     A.U. after   10 cycles
 SCF Done:  E(RHF) =  -2008.27306592     A.U. after   10 cycles
 SCF Done:  E(RHF) =  -2008.27306669     A.U. after   10 cycles
 SCF Done:  E(RHF) =  -2008.27306778     A.U. after   10 cycles
 SCF Done:  E(RHF) =  -2008.27306909     A.U. after   10 cycles
 SCF Done:  E(RHF) =  -2008.27307029     A.U. after   10 cycles
 SCF Done:  E(RHF) =  -2008.27307141     A.U. after   10 cycles
 SCF Done:  E(RHF) =  -2008.27307164     A.U. after    8 cycles
 SCF Done:  E(RHF) =  -2008.27307171     A.U. after    7 cycles
 Optimization completed.
    -- Stationary point found.

                         Standard orientation:
 ---------------------------------------------------------------------
 Center     Atomic      Atomic             Coordinates (Angstroms)
 Number     Number       Type             X           Y           Z
 ---------------------------------------------------------------------
      1          8           0       -0.282310    3.739107   -0.669682
      2          8           0       -1.238380    1.490634    1.627136
      3          8           0       -1.900851   -0.206687   -0.365419
      4          8           0       -1.115708   -2.641726   -0.686314
      5          8           0        2.253567    3.585027   -1.528536
      6          8           0        4.230949   -1.424904   -0.269970
      7          8           0        3.303949    0.082955   -2.099827
      8          8           0       -0.081043   -0.404519    3.451371
      9          8           0       -3.392648    2.026533    1.162697
     10          8           0       -2.248838   -0.072293   -2.577580
     11          8           0        5.664991    0.297730   -0.155473
     12          6           0        0.348102    0.797090   -0.020760
     13          6           0       -0.583760    1.942310    0.409059
     14          6           0        1.503108    1.224698   -1.011307
     15          6           0        0.183256    3.253190    0.651310
     16          6           0       -0.463367   -0.442163   -0.524230
     17          6           0       -0.232098   -1.832234    0.129350
     18          6           0        2.257614    2.561358   -0.531681
     19          6           0        1.682369    3.133662    0.763834
     20          6           0        1.218197   -2.333036   -0.010460
     21          6           0       -1.353152    2.701085   -0.701709
     22          6           0        2.661189    0.198419   -1.082305
     23          6           0       -0.673623   -1.908489    1.597456
     24          6           0        2.072880   -1.376547    0.824106
     25          6           0        1.042591    1.445622   -2.469086
     26          6           0        3.153193   -0.569519    0.166353
     27          6           0        0.392367   -1.522975    2.659751
     28          6           0        1.751477   -1.139355    2.087312
     29          6           0        1.378563   -3.755260    0.589669
     30          6           0        1.612574   -2.481988   -1.497143
     31          6           0        2.590206   -0.330206    3.063207
     32          6           0       -2.570208    1.617052    1.932181
     33          6           0       -2.683938   -0.310018   -1.476730
     34          6           0       -2.819720    1.216962    3.360539
     35          6           0        5.431745   -0.821424   -0.526255
     36          6           0       -4.081244   -0.680225   -1.191820
     37          6           0        6.331081   -1.746477   -1.281707
     38          6           0       -4.963067   -0.706492   -2.260547
     39          6           0       -4.514228   -1.010927    0.079759
     40          6           0       -6.281601   -1.061263   -2.057677
     41          6           0       -5.833350   -1.368230    0.282520
     42          6           0       -6.716153   -1.391954   -0.784505
     43          1           0        0.818409    0.525892    0.899164
     44          1           0       -0.265670    3.829866    1.444843
     45          1           0       -0.310744   -0.575906   -1.573909
     46          1           0        3.302311    2.331980   -0.386795
     47          1           0        1.915223    2.507852    1.617177
     48          1           0        2.138992    4.102115    0.920523
     49          1           0       -1.430808    2.214816   -1.653058
     50          1           0       -2.285358    3.112329   -0.379480
     51          1           0       -0.992007   -2.926306    1.788620
     52          1           0       -1.535315   -1.278318    1.732721
     53          1           0        0.371773    2.280171   -2.537254
     54          1           0        1.904764    1.662751   -3.072844
     55          1           0        0.548991    0.575341   -2.873994
     56          1           0        3.551286    0.162666    0.848709
     57          1           0        0.503008   -2.325142    3.374071
     58          1           0        2.402267   -4.075463    0.440561
     59          1           0        1.174284   -3.787320    1.649918
     60          1           0        0.728505   -4.457540    0.079553
     61          1           0        2.669300   -2.683029   -1.577128
     62          1           0        1.049063   -3.306380   -1.909116
     63          1           0        1.391639   -1.620741   -2.103161
     64          1           0       -1.342784   -3.475170   -0.258007
     65          1           0        1.358142    3.957560   -1.577862
     66          1           0        2.312880    0.717774    3.064955
     67          1           0        2.416328   -0.694713    4.066595
     68          1           0        3.645846   -0.413742    2.849738
     69          1           0       -0.304909    0.340700    2.871026
     70          1           0       -3.878825    1.072810    3.504817
     71          1           0       -2.258478    0.335543    3.624858
     72          1           0       -2.483795    2.022104    4.006857
     73          1           0        5.918828   -1.874815   -2.275666
     74          1           0        6.354220   -2.713102   -0.797573
     75          1           0        7.321464   -1.325330   -1.345291
     76          1           0       -4.600730   -0.450580   -3.234660
     77          1           0       -3.824873   -0.987222    0.893675
     78          1           0       -6.965114   -1.080613   -2.882270
     79          1           0       -6.173865   -1.624421    1.265614
     80          1           0       -7.739719   -1.667255   -0.624069
 ---------------------------------------------------------------------

 The electronic state is 1-A.
 Alpha  occ. eigenvalues --  -20.52770 -20.50675 -20.50130 -20.47631 -20.47268
 Alpha  occ. eigenvalues --  -20.46692 -20.46256 -20.45711 -20.45318 -20.45315
 Alpha  occ. eigenvalues --  -20.42567 -11.35961 -11.34319 -11.33717 -11.29281
 Alpha  occ. eigenvalues --  -11.28210 -11.26169 -11.25929 -11.25684 -11.25153
 Alpha  occ. eigenvalues --  -11.25069 -11.24068 -11.23562 -11.21559 -11.21137
 Alpha  occ. eigenvalues --  -11.20519 -11.20408 -11.20223 -11.20007 -11.19758
 Alpha  occ. eigenvalues --  -11.19685 -11.19407 -11.19165 -11.18903 -11.18758
 Alpha  occ. eigenvalues --  -11.18607 -11.18467 -11.17951 -11.17641 -11.17105
 Alpha  occ. eigenvalues --  -11.15127 -11.14235  -1.48491  -1.47348  -1.47113
 Alpha  occ. eigenvalues --   -1.41968  -1.40587  -1.38558  -1.38136  -1.36737
 Alpha  occ. eigenvalues --   -1.36201  -1.35935  -1.33911  -1.18263  -1.17914
 Alpha  occ. eigenvalues --   -1.14173  -1.09387  -1.07301  -1.07000  -1.06127
 Alpha  occ. eigenvalues --   -1.05368  -1.03789  -1.03540  -1.02522  -1.00564
 Alpha  occ. eigenvalues --   -0.99538  -0.95219  -0.94400  -0.94101  -0.93475
 Alpha  occ. eigenvalues --   -0.91202  -0.88227  -0.87903  -0.85376  -0.84784
 Alpha  occ. eigenvalues --   -0.83625  -0.81813  -0.79690  -0.78418  -0.77752
 Alpha  occ. eigenvalues --   -0.75809  -0.75436  -0.74524  -0.73050  -0.72317
 Alpha  occ. eigenvalues --   -0.71243  -0.69773  -0.69594  -0.69443  -0.68843
 Alpha  occ. eigenvalues --   -0.68131  -0.67503  -0.66905  -0.66554  -0.66383
 Alpha  occ. eigenvalues --   -0.65970  -0.65368  -0.65337  -0.64554  -0.64104
 Alpha  occ. eigenvalues --   -0.63486  -0.63270  -0.63065  -0.62755  -0.61799
 Alpha  occ. eigenvalues --   -0.61536  -0.61123  -0.60796  -0.60254  -0.60045
 Alpha  occ. eigenvalues --   -0.59640  -0.58735  -0.58072  -0.57891  -0.57709
 Alpha  occ. eigenvalues --   -0.56969  -0.56227  -0.55784  -0.55562  -0.55088
 Alpha  occ. eigenvalues --   -0.54795  -0.54306  -0.54170  -0.53908  -0.53387
 Alpha  occ. eigenvalues --   -0.53041  -0.52370  -0.52110  -0.51706  -0.51656
 Alpha  occ. eigenvalues --   -0.51352  -0.51300  -0.50980  -0.50753  -0.50393
 Alpha  occ. eigenvalues --   -0.50209  -0.49249  -0.48811  -0.48092  -0.47536
 Alpha  occ. eigenvalues --   -0.47304  -0.46407  -0.46075  -0.45442  -0.44867
 Alpha  occ. eigenvalues --   -0.44569  -0.43997  -0.43591  -0.43354  -0.42740
 Alpha  occ. eigenvalues --   -0.42121  -0.41488  -0.39320  -0.35678  -0.35326
 Alpha  occ. eigenvalues --   -0.34943
 Alpha virt. eigenvalues --    0.09010   0.12235   0.13904   0.15700   0.16511
 Alpha virt. eigenvalues --    0.18744   0.20427   0.22128   0.23088   0.23639
 Alpha virt. eigenvalues --    0.24134   0.25015   0.25920   0.26913   0.27208

 Mulliken charges:
               1
     1  O   -0.639751
     2  O   -0.759526
     3  O   -0.725834
     4  O   -0.688450
     5  O   -0.693322
     6  O   -0.689824
     7  O   -0.562276
     8  O   -0.706882
     9  O   -0.592550
    10  O   -0.632893
    11  O   -0.616085
    12  C   -0.330496
    13  C    0.184497
    14  C   -0.379548
    15  C    0.144863
    16  C    0.130623
    17  C    0.287732
    18  C    0.172753
    19  C   -0.515888
    20  C   -0.311067
    21  C   -0.082299
    22  C    0.664052
    23  C   -0.460985
    24  C    0.023744
    25  C   -0.530335
    26  C   -0.052297
    27  C    0.066331
    28  C   -0.063652
    29  C   -0.510799
    30  C   -0.557873
    31  C   -0.597304
    32  C    0.880022
    33  C    1.021785
    34  C   -0.721919
    35  C    0.877974
    36  C   -0.251411
    37  C   -0.685062
    38  C   -0.177460
    39  C   -0.183241
    40  C   -0.243663
    41  C   -0.245586
    42  C   -0.217726
    43  H    0.299650
    44  H    0.245693
    45  H    0.315462
    46  H    0.270010
    47  H    0.224930
    48  H    0.266448
    49  H    0.253899
    50  H    0.290677
    51  H    0.214072
    52  H    0.274440
    53  H    0.216702
    54  H    0.271934
    55  H    0.214644
    56  H    0.292690
    57  H    0.250120
    58  H    0.233326
    59  H    0.201656
    60  H    0.188267
    61  H    0.244822
    62  H    0.223653
    63  H    0.215005
    64  H    0.387682
    65  H    0.422256
    66  H    0.220147
    67  H    0.243170
    68  H    0.220610
    69  H    0.413464
    70  H    0.252951
    71  H    0.279011
    72  H    0.256948
    73  H    0.271676
    74  H    0.247681
    75  H    0.248514
    76  H    0.286570
    77  H    0.268915
    78  H    0.249854
    79  H    0.243771
    80  H    0.250309
 Sum of Mulliken charges =  -0.00000

 Dipole moment (field-independent basis, Debye):
    X=             -3.4578    Y=             -5.2036    Z=              5.7713  Tot=              8.5054
 Quadrupole moment (field-independent basis, Debye-Ang):
   XX=           -244.2513   YY=           -248.5199   ZZ=           -256.0715
   XY=             -7.5451   XZ=              2.8105   YZ=              9.1830

 Normal termination of Gaussian 16 at Sun Mar 26 15:48:50 2023.
