 Gaussian 16, Revision C.01,
 Gaussian 16:  ES64L-G16RevC.01  3-Jul-2019

 --------------------------------------
 # B3LYP/6-31G* Geom=Chk Guess=Read Opt
 --------------------------------------

 ---
 CLR
 ---
 Structure from the checkpoint file:  "6WZ3_small_opt4.chk"
 Charge =  0 Multiplicity = 1

 SCF Done:  E(RB3LYP) =  -2030.35180922     A.U. after   13 cycles
 SCF Done:  E(RB3LYP) =  -2030.36392449     A.U. after   14 cycles
 SCF Done:  E(RB3LYP) =  -2030.36802494     A.U. after   13 cycles
 SCF Done:  E(RB3LYP) =  -2030.37072504     A.U. after   13 cycles
 SCF Done:  E(RB3LYP) =  -2030.37056954     A.U. after   12 cycles
 SCF Done:  E(RB3LYP) =  -2030.37098226     A.U. after   12 cycles
 SCF Done:  E(RB3LYP) =  -2030.37148676     A.U. after   12 cycles
 SCF Done:  E(RB3LYP) =  -2030.37138756     A.U. after   11 cycles
 SCF Done:  E(RB3LYP) =  -2030.37155282     A.U. after   11 cycles
 SCF Done:  E(RB3LYP) =  -2030.37165552     A.U. after   10 cycles
 SCF Done:  E(RB3LYP) =  -2030.37171161     A.U. after   10 cycles
 SCF Done:  E(RB3LYP) =  -2030.37171732     A.U. after    9 cycles
 SCF Done:  E(RB3LYP) =  -2030.37171966     A.U. after    8 cycles
 SCF Done:  E(RB3LYP) =  -2030.37172160     A.U. after    8 cycles
 SCF Done:  E(RB3LYP) =  -2030.37172423     A.U. after    8 cycles
 SCF Done:  E(RB3LYP) =  -2030.37172534     A.U. after    8 cycles
 SCF Done:  E(RB3LYP) =  -2030.37172596     A.U. after    7 cycles
 SCF Done:  E(RB3LYP) =  -2030.37172621     A.U. after    7 cycles
 SCF Done:  E(RB3LYP) =  -2030.37172640     A.U. after    7 cycles
 SCF Done:  E(RB3LYP) =  -2030.37172652     A.U. after    6 cycles
 Optimization completed.
    -- Stationary point found.

                         Standard orientation:
 ---------------------------------------------------------------------
 Center     Atomic      Atomic             Coordinates (Angstroms)
 Number     Number       Type             X           Y           Z
 ---------------------------------------------------------------------
      1          8           0       -0.991511    3.592304   -0.063254
      2          8           0       -1.337752    0.804309    1.758606
      3          8           0       -1.904168   -0.655511   -0.466546
      4          8           0       -0.722820   -3.043635   -0.746491
      5          8           0        1.473622    3.858197   -1.344327
      6          8           0        4.353696   -0.906577   -0.595217
      7          8           0        3.131332    0.644127   -2.268068
      8          8           0        0.569573   -1.813865    3.675773
      9          8           0       -2.719185    2.386341    2.644970
     10          8           0       -2.186906   -0.323256   -2.700106
     11          8           0        5.514384    0.999760   -0.187585
     12          6           0        0.181038    0.663353   -0.031329
     13          6           0       -0.847773    1.599492    0.653826
     14          6           0        1.187819    1.357471   -1.043257
     15          6           0       -0.247931    2.970700    1.035430
     16          6           0       -0.452979   -0.663784   -0.600574
     17          6           0       -0.002715   -2.053709   -0.008065
     18          6           0        1.754466    2.776961   -0.481870
     19          6           0        1.255197    3.104594    0.928433
     20          6           0        1.514329   -2.337608   -0.267508
     21          6           0       -1.832886    2.411689   -0.212246
     22          6           0        2.500204    0.537138   -1.239543
     23          6           0       -0.298452   -2.237556    1.494966
     24          6           0        2.285818   -1.311777    0.581728
     25          6           0        0.604483    1.595598   -2.452896
     26          6           0        3.173643   -0.283272   -0.074661
     27          6           0        0.793623   -1.805253    2.471817
     28          6           0        2.058534   -1.237753    1.919878
     29          6           0        1.893371   -3.765195    0.221446
     30          6           0        1.840369   -2.333619   -1.778186
     31          6           0        2.868994   -0.442314    2.914547
     32          6           0       -2.219515    1.284322    2.678882
     33          6           0       -2.655918   -0.525762   -1.599486
     34          6           0       -2.498386    0.236943    3.732419
     35          6           0        5.458848   -0.107240   -0.672343
     36          6           0       -4.113776   -0.651730   -1.321583
     37          6           0        6.562006   -0.800801   -1.427058
     38          6           0       -4.991816   -0.562177   -2.411685
     39          6           0       -4.624201   -0.854698   -0.030996
     40          6           0       -6.364845   -0.675812   -2.212787
     41          6           0       -5.999598   -0.966464    0.163323
     42          6           0       -6.870138   -0.878014   -0.925559
     43          1           0        0.785387    0.381526    0.823514
     44          1           0       -0.625211    3.338246    1.992333
     45          1           0       -0.265143   -0.724078   -1.667461
     46          1           0        2.846833    2.719216   -0.466799
     47          1           0        1.707260    2.447434    1.684732
     48          1           0        1.573078    4.125367    1.167608
     49          1           0       -1.941985    2.121085   -1.258744
     50          1           0       -2.808852    2.562987    0.250925
     51          1           0       -0.479369   -3.304354    1.667043
     52          1           0       -1.212546   -1.713639    1.785276
     53          1           0       -0.253849    2.266218   -2.418844
     54          1           0        1.360860    2.056065   -3.084869
     55          1           0        0.281373    0.667644   -2.928225
     56          1           0        3.482685    0.466131    0.659158
     57          1           0        2.949988   -3.948235   -0.000611
     58          1           0        1.761285   -3.902592    1.297098
     59          1           0        1.292278   -4.512308   -0.302836
     60          1           0        2.911579   -2.477172   -1.936214
     61          1           0        1.301197   -3.158887   -2.248803
     62          1           0        1.554701   -1.425632   -2.308331
     63          1           0       -1.665228   -2.904116   -0.560428
     64          1           0        0.522205    4.050188   -1.236990
     65          1           0        2.415057    0.534419    3.132773
     66          1           0        2.881999   -0.985902    3.863616
     67          1           0        3.897805   -0.280040    2.586149
     68          1           0       -2.909137    0.725253    4.617627
     69          1           0       -3.246638   -0.468842    3.350887
     70          1           0       -1.599937   -0.333358    3.983749
     71          1           0        6.307409   -0.803560   -2.492755
     72          1           0        6.661636   -1.841291   -1.105359
     73          1           0        7.499204   -0.262905   -1.280078
     74          1           0       -4.577928   -0.404164   -3.401970
     75          1           0       -3.943821   -0.918384    0.810617
     76          1           0       -7.041726   -0.606343   -3.059455
     77          1           0       -6.393337   -1.120511    1.163964
     78          1           0       -7.942103   -0.965336   -0.770730
 ---------------------------------------------------------------------

 The electronic state is 1-A.
 Alpha  occ. eigenvalues --  -19.21159 -19.20849 -19.20082 -19.16730 -19.16196
 Alpha  occ. eigenvalues --  -19.15568 -19.15520 -19.15147 -19.14949 -19.14490
 Alpha  occ. eigenvalues --  -19.13640 -10.33620 -10.33519 -10.32584 -10.29221
 Alpha  occ. eigenvalues --  -10.28674 -10.27956 -10.27150 -10.26967 -10.26524
 Alpha  occ. eigenvalues --  -10.25233 -10.25052 -10.24658 -10.23211 -10.22818
 Alpha  occ. eigenvalues --  -10.22609 -10.22434 -10.22328 -10.21811 -10.21780
 Alpha  occ. eigenvalues --  -10.21681 -10.21369 -10.21359 -10.21201 -10.20440
 Alpha  occ. eigenvalues --  -10.20052 -10.20011 -10.19981 -10.19669 -10.18565
 Alpha  occ. eigenvalues --  -10.17840 -10.17033  -1.12004  -1.11417  -1.11258
 Alpha  occ. eigenvalues --   -1.05990  -1.05822  -1.04833  -1.04469  -1.03201
 Alpha  occ. eigenvalues --   -1.02730  -1.02309  -1.01648  -0.88007  -0.87696
 Alpha  occ. eigenvalues --   -0.84517  -0.81100  -0.79277  -0.79025  -0.78389
 Alpha  occ. eigenvalues --   -0.78000  -0.76853  -0.76655  -0.74952  -0.73743
 Alpha  occ. eigenvalues --   -0.73376  -0.69881  -0.69195  -0.68974  -0.68392
 Alpha  occ. eigenvalues --   -0.66769  -0.64754  -0.64010  -0.63254  -0.62259
 Alpha  occ. eigenvalues --   -0.61262  -0.60895  -0.58547  -0.57976  -0.57076
 Alpha  occ. eigenvalues --   -0.55921  -0.54492  -0.53745  -0.52955  -0.51762
 Alpha  occ. eigenvalues --   -0.51568  -0.51058  -0.50835  -0.50244  -0.49702
 Alpha  occ. eigenvalues --   -0.49151  -0.48671  -0.48309  -0.48090  -0.47785
 Alpha  occ. eigenvalues --   -0.47268  -0.47065  -0.46873  -0.46489  -0.46368
 Alpha  occ. eigenvalues --   -0.45977  -0.45727  -0.45470  -0.44780  -0.44420
 Alpha  occ. eigenvalues --   -0.44401  -0.44120  -0.43606  -0.43347  -0.43006
 Alpha  occ. eigenvalues --   -0.42472  -0.42278  -0.42114  -0.41589  -0.41286
 Alpha  occ. eigenvalues --   -0.40987  -0.40702  -0.40058  -0.39841  -0.39703
 Alpha  occ. eigenvalues --   -0.39279  -0.38825  -0.38693  -0.38250  -0.38150
 Alpha  occ. eigenvalues --   -0.38004  -0.37748  -0.37592  -0.37094  -0.36940
 Alpha  occ. eigenvalues --   -0.36500  -0.36427  -0.36111  -0.35891  -0.35630
 Alpha  occ. eigenvalues --   -0.34584  -0.34017  -0.33713  -0.33494  -0.32659
 Alpha  occ. eigenvalues --   -0.32213  -0.31581  -0.31288  -0.30240  -0.29421
 Alpha  occ. eigenvalues --   -0.29089  -0.28909  -0.28495  -0.27613  -0.27397
 Alpha  occ. eigenvalues --   -0.27327  -0.26572  -0.26197  -0.25351  -0.24770
 Alpha virt. eigenvalues --   -0.08038  -0.06374  -0.03123  -0.02287  -0.00727
 Alpha virt. eigenvalues --    0.00471   0.02741   0.04009   0.04797   0.04891
 Alpha virt. eigenvalues --    0.06607   0.07416   0.08444   0.08751   0.09134

 Mulliken charges:
               1
     1  O   -0.541597
     2  O   -0.503747
     3  O   -0.533341
     4  O   -0.660009
     5  O   -0.630976
     6  O   -0.464309
     7  O   -0.443766
     8  O   -0.482312
     9  O   -0.459404
    10  O   -0.479823
    11  O   -0.467091
    12  C   -0.204959
    13  C    0.255672
    14  C   -0.038798
    15  C    0.129352
    16  C    0.105783
    17  C    0.313171
    18  C    0.106859
    19  C   -0.326346
    20  C   -0.004397
    21  C   -0.042379
    22  C    0.426295
    23  C   -0.428582
    24  C    0.094130
    25  C   -0.465462
    26  C   -0.035146
    27  C    0.438355
    28  C    0.018357
    29  C   -0.453713
    30  C   -0.502789
    31  C   -0.528431
    32  C    0.609056
    33  C    0.595789
    34  C   -0.551498
    35  C    0.630630
    36  C    0.042613
    37  C   -0.531517
    38  C   -0.148528
    39  C   -0.170687
    40  C   -0.137441
    41  C   -0.135145
    42  C   -0.114553
    43  H    0.161991
    44  H    0.171847
    45  H    0.194421
    46  H    0.175403
    47  H    0.149241
    48  H    0.176935
    49  H    0.166372
    50  H    0.182760
    51  H    0.188945
    52  H    0.192328
    53  H    0.145646
    54  H    0.196062
    55  H    0.171525
    56  H    0.197463
    57  H    0.155925
    58  H    0.146471
    59  H    0.172994
    60  H    0.171281
    61  H    0.176066
    62  H    0.165886
    63  H    0.402093
    64  H    0.421144
    65  H    0.166618
    66  H    0.192627
    67  H    0.172078
    68  H    0.187866
    69  H    0.180109
    70  H    0.211935
    71  H    0.201914
    72  H    0.178807
    73  H    0.185383
    74  H    0.170500
    75  H    0.156682
    76  H    0.146192
    77  H    0.141978
    78  H    0.145191
 Sum of Mulliken charges =  -0.00000

 Dipole moment (field-independent basis, Debye):
    X=             -3.2312    Y=             -4.2248    Z=              1.6536  Tot=              5.5699
 Quadrupole moment (field-independent basis, Debye-Ang):
   XX=           -215.5617   YY=           -260.2304   ZZ=           -255.5381
   XY=             -3.7236   XZ=              5.3319   YZ=              5.4800

 Normal termination of Gaussian 16 at Wed Apr  5 21:22:14 2023.
