 Gaussian 16, Revision C.01,
 Gaussian 16:  ES64L-G16RevC.01  3-Jul-2019

 ----------------------------------------
 # hf/3-21g* scf=qc geom=printinputorient
 ----------------------------------------

 ---
 CLR
 ---
 Symbolic Z-matrix:
 Charge =  0 Multiplicity = 1

                         Standard orientation:
 ---------------------------------------------------------------------
 Center     Atomic      Atomic             Coordinates (Angstroms)
 Number     Number       Type             X           Y           Z
 ---------------------------------------------------------------------
      1          8           0        0.786456    3.210834   -1.514105
      2          8           0       -1.431187    2.004755    0.856000
      3          8           0       -1.933909    0.076973   -0.206602
      4          8           0       -1.194527   -2.422330   -1.465124
      5          8           0        3.528720    2.647540   -0.769574
      6          8           0        4.069892   -1.829298    0.534549
      7          8           0        3.290944   -0.523228   -1.788680
      8          8           0       -0.905196   -1.789210    3.277055
      9          8           0       -3.242581    3.251394    0.096683
     10          8           0       -2.490314   -1.167185   -2.093847
     11          8           0        5.370233    0.095426    0.734871
     12          6           0        0.391337    0.792827    0.105662
     13          6           0       -0.348982    2.164290   -0.058756
     14          6           0        1.796148    1.021445   -0.592794
     15          6           0        0.552740    3.331726   -0.049841
     16          6           0       -0.598651   -0.238270   -0.614705
     17          6           0       -0.459621   -1.807459   -0.404024
     18          6           0        2.632213    2.090945    0.196219
     19          6           0        1.733398    3.182547    0.834907
     20          6           0        0.997957   -2.184886   -0.452592
     21          6           0       -0.589951    2.630492   -1.452768
     22          6           0        2.742861   -0.188875   -0.705793
     23          6           0       -1.073234   -2.357716    0.927758
     24          6           0        1.675016   -1.583918    0.785281
     25          6           0        1.405909    1.519378   -1.997154
     26          6           0        2.961301   -0.931198    0.583065
     27          6           0       -0.322059   -1.890089    2.165120
     28          6           0        1.141291   -1.559876    2.016669
     29          6           0        1.189008   -3.713675   -0.442912
     30          6           0        1.611231   -1.611460   -1.742879
     31          6           0        1.994087   -1.172166    3.239691
     32          6           0       -2.239748    3.177458    0.853585
     33          6           0       -2.858965   -0.674921   -0.994625
     34          6           0       -1.879488    4.350483    1.782556
     35          6           0        5.264010   -1.080745    0.297214
     36          6           0       -4.307171   -0.880676   -0.519129
     37          6           0        6.420516   -1.715087   -0.496835
     38          6           0       -5.147331   -1.622877   -1.285674
     39          6           0       -4.735263   -0.320082    0.645542
     40          6           0       -6.481224   -1.810039   -0.904747
     41          6           0       -6.065336   -0.482341    1.063319
     42          6           0       -6.947254   -1.231131    0.278272
     43          1           0        0.542100    0.523432    1.130201
     44          1           0        0.036291    4.235904    0.196783
     45          1           0       -0.464571   -0.036066   -1.657180
     46          1           0        3.183964    1.659345    1.003257
     47          1           0        1.352920    2.888866    1.790983
     48          1           0        2.315612    4.073449    0.946545
     49          1           0       -0.894649    1.900019   -2.173677
     50          1           0       -1.313158    3.418003   -1.486510
     51          1           0       -1.022436   -3.425912    0.900160
     52          1           0       -2.092767   -2.042520    0.995233
     53          1           0        0.804084    2.399177   -1.909410
     54          1           0        2.292729    1.747375   -2.551048
     55          1           0        0.854022    0.757544   -2.505010
     56          1           0        3.127151   -0.233338    1.376281
     57          1           0        2.234783   -3.941678   -0.475132
     58          1           0        0.761902   -4.120975    0.448020
     59          1           0        0.706577   -4.141221   -1.297802
     60          1           0        2.653100   -1.851191   -1.779415
     61          1           0        1.117884   -2.036160   -2.591810
     62          1           0        1.489121   -0.548930   -1.754117
     63          1           0       -1.123633   -3.376620   -1.391709
     64          1           0        3.022327    3.058099   -1.474727
     65          1           0        1.949719   -0.114030    3.386410
     66          1           0        1.615474   -1.669336    4.108738
     67          1           0        3.009186   -1.467629    3.074682
     68          1           0       -2.209034    5.267313    1.343204
     69          1           0       -2.357820    4.215647    2.728664
     70          1           0       -0.819239    4.383314    1.921124
     71          1           0        6.026071   -2.424367   -1.193269
     72          1           0        7.087719   -2.209426    0.176787
     73          1           0        6.950630   -0.951784   -1.027289
     74          1           0       -4.787367   -2.066816   -2.190202
     75          1           0       -4.056898    0.249773    1.243646
     76          1           0       -7.138280   -2.392687   -1.516605
     77          1           0       -6.403214   -0.036032    1.977176
     78          1           0       -7.967003   -1.360525    0.579417
 ---------------------------------------------------------------------

 SCF Done:  E(RHF) =  -2006.35947377     a.u. after    9 cycles

 The electronic state is 1-A.
 Alpha  occ. eigenvalues --  -20.53141 -20.52694 -20.51701 -20.49583 -20.49324
 Alpha  occ. eigenvalues --  -20.46297 -20.45618 -20.45035 -20.44315 -20.44207
 Alpha  occ. eigenvalues --  -20.43891 -11.37125 -11.35446 -11.32332 -11.29233
 Alpha  occ. eigenvalues --  -11.29050 -11.28943 -11.28695 -11.28019 -11.25493
 Alpha  occ. eigenvalues --  -11.25430 -11.25244 -11.24947 -11.22174 -11.21652
 Alpha  occ. eigenvalues --  -11.21446 -11.20947 -11.20683 -11.19882 -11.19781
 Alpha  occ. eigenvalues --  -11.19323 -11.18940 -11.18787 -11.18475 -11.18414
 Alpha  occ. eigenvalues --  -11.18399 -11.18352 -11.18119 -11.17508 -11.16142
 Alpha  occ. eigenvalues --  -11.10592 -11.05091  -1.56765  -1.46947  -1.45476
 Alpha  occ. eigenvalues --   -1.44311  -1.40259  -1.38310  -1.37351  -1.37035
 Alpha  occ. eigenvalues --   -1.35882  -1.35354  -1.33712  -1.19148  -1.17499
 Alpha  occ. eigenvalues --   -1.16947  -1.12032  -1.09927  -1.08802  -1.06342
 Alpha  occ. eigenvalues --   -1.05266  -1.04269  -1.02955  -1.02021  -1.01219
 Alpha  occ. eigenvalues --   -1.00199  -0.96644  -0.96306  -0.95074  -0.93373
 Alpha  occ. eigenvalues --   -0.91989  -0.89264  -0.86695  -0.84505  -0.84207
 Alpha  occ. eigenvalues --   -0.83883  -0.82161  -0.80242  -0.79768  -0.77206
 Alpha  occ. eigenvalues --   -0.76662  -0.76483  -0.74672  -0.73429  -0.73385
 Alpha  occ. eigenvalues --   -0.72633  -0.72020  -0.70313  -0.69712  -0.69308
 Alpha  occ. eigenvalues --   -0.68971  -0.67724  -0.67675  -0.67306  -0.66365
 Alpha  occ. eigenvalues --   -0.66258  -0.65177  -0.64889  -0.64579  -0.63796
 Alpha  occ. eigenvalues --   -0.63717  -0.63137  -0.63024  -0.62325  -0.62109
 Alpha  occ. eigenvalues --   -0.61642  -0.61336  -0.60525  -0.60256  -0.59803
 Alpha  occ. eigenvalues --   -0.59568  -0.59492  -0.59242  -0.58497  -0.58341
 Alpha  occ. eigenvalues --   -0.57924  -0.57635  -0.56936  -0.56717  -0.56156
 Alpha  occ. eigenvalues --   -0.55588  -0.55244  -0.55019  -0.54473  -0.53585
 Alpha  occ. eigenvalues --   -0.52977  -0.52608  -0.51934  -0.51540  -0.50915
 Alpha  occ. eigenvalues --   -0.50751  -0.50224  -0.49872  -0.49399  -0.48965
 Alpha  occ. eigenvalues --   -0.48098  -0.47231  -0.47051  -0.46636  -0.46015
 Alpha  occ. eigenvalues --   -0.45271  -0.45052  -0.44523  -0.44079  -0.43946
 Alpha  occ. eigenvalues --   -0.42843  -0.42204  -0.40340  -0.39711  -0.37977
 Alpha  occ. eigenvalues --   -0.35720  -0.34124  -0.34018  -0.33203  -0.28150
 Alpha virt. eigenvalues --    0.07046   0.10374   0.11712   0.13153   0.14204
 Alpha virt. eigenvalues --    0.15526   0.19293   0.21478   0.21965   0.22742
 Alpha virt. eigenvalues --    0.22813   0.24714   0.25150   0.25505   0.26307

 Mulliken charges:
               1
     1  O   -0.595769
     2  O   -0.619274
     3  O   -0.676559
     4  O   -0.643191
     5  O   -0.667623
     6  O   -0.657640
     7  O   -0.582820
     8  O   -0.575991
     9  O   -0.531399
    10  O   -0.521982
    11  O   -0.587723
    12  C   -0.244652
    13  C    0.187367
    14  C   -0.334624
    15  C    0.033281
    16  C    0.140126
    17  C    0.266265
    18  C    0.159910
    19  C   -0.499987
    20  C   -0.303674
    21  C   -0.251649
    22  C    0.547682
    23  C   -0.494493
    24  C    0.065283
    25  C   -0.809482
    26  C   -0.000848
    27  C    0.546235
    28  C   -0.159360
    29  C   -0.529557
    30  C   -0.650497
    31  C   -0.618056
    32  C    0.748707
    33  C    0.882793
    34  C   -0.704076
    35  C    0.811147
    36  C   -0.241999
    37  C   -0.687193
    38  C   -0.198854
    39  C   -0.199112
    40  C   -0.238388
    41  C   -0.235371
    42  C   -0.230337
    43  H    0.287619
    44  H    0.282903
    45  H    0.306275
    46  H    0.275288
    47  H    0.241446
    48  H    0.268910
    49  H    0.326499
    50  H    0.292315
    51  H    0.252864
    52  H    0.290400
    53  H    0.566409
    54  H    0.215268
    55  H    0.182288
    56  H    0.294974
    57  H    0.241748
    58  H    0.203455
    59  H    0.196822
    60  H    0.305147
    61  H    0.221268
    62  H    0.282048
    63  H    0.374896
    64  H    0.409895
    65  H    0.213982
    66  H    0.258645
    67  H    0.241131
    68  H    0.271201
    69  H    0.281895
    70  H    0.226934
    71  H    0.257074
    72  H    0.255416
    73  H    0.278640
    74  H    0.281858
    75  H    0.280511
    76  H    0.245647
    77  H    0.244864
    78  H    0.246850
 Sum of Mulliken charges =   0.00000

 Dipole moment (field-independent basis, Debye):
    X=             -1.1418    Y=              1.8905    Z=              3.2525  Tot=              3.9314
 Quadrupole moment (field-independent basis, Debye-Ang):
   XX=           -252.4641   YY=           -219.2359   ZZ=           -264.3533
   XY=            -11.1213   XZ=              2.9135   YZ=             15.7356

 Normal termination of Gaussian 16 at Wed Apr  5 17:51:42 2023.
