 Gaussian 16, Revision C.01,
 Gaussian 16:  ES64L-G16RevC.01  3-Jul-2019

 --------------------------------------
 # HF/3-21G* Geom=Chk Guess=CopyChk Opt
 --------------------------------------

 ---
 CLR
 ---
 Structure from the checkpoint file:  "6WZ3_small_opt2.chk"
 Charge =  0 Multiplicity = 1

 SCF Done:  E(RHF) =  -2006.35947377     A.U. after    1 cycles
 SCF Done:  E(RHF) =  -2006.62178619     A.U. after   17 cycles
 SCF Done:  E(RHF) =  -2006.68794793     A.U. after   18 cycles
 SCF Done:  E(RHF) =  -2006.85515439     A.U. after   17 cycles
 SCF Done:  E(RHF) =  -2006.73269217     A.U. after   18 cycles
 SCF Done:  E(RHF) =  -2006.93270661     A.U. after   15 cycles
 SCF Done:  E(RHF) =  -2007.00029847     A.U. after   17 cycles
 SCF Done:  E(RHF) =  -2007.03386853     A.U. after   16 cycles
 SCF Done:  E(RHF) =  -2007.05525885     A.U. after   17 cycles
 SCF Done:  E(RHF) =  -2007.07331066     A.U. after   17 cycles
 SCF Done:  E(RHF) =  -2007.11991793     A.U. after   12 cycles
 SCF Done:  E(RHF) =  -2007.11994498     A.U. after   12 cycles
 SCF Done:  E(RHF) =  -2007.11995803     A.U. after   12 cycles
 SCF Done:  E(RHF) =  -2007.11996523     A.U. after   10 cycles
 SCF Done:  E(RHF) =  -2007.11997273     A.U. after   12 cycles
 SCF Done:  E(RHF) =  -2007.11998029     A.U. after   12 cycles
 SCF Done:  E(RHF) =  -2007.11998362     A.U. after   10 cycles
 SCF Done:  E(RHF) =  -2007.11998455     A.U. after    9 cycles
 SCF Done:  E(RHF) =  -2007.11998485     A.U. after    8 cycles
 SCF Done:  E(RHF) =  -2007.11998501     A.U. after    8 cycles
 Optimization completed.
    -- Stationary point found.

                         Standard orientation:
 ---------------------------------------------------------------------
 Center     Atomic      Atomic             Coordinates (Angstroms)
 Number     Number       Type             X           Y           Z
 ---------------------------------------------------------------------
      1          8           0       -0.628347    3.491421   -1.131632
      2          8           0       -1.279740    1.385107    1.423010
      3          8           0       -1.890995   -0.442409   -0.451264
      4          8           0       -1.005127   -2.859636   -0.159601
      5          8           0        1.832289    3.386381   -2.168313
      6          8           0        4.234326   -1.265344   -0.146134
      7          8           0        3.198757   -0.149041   -2.187745
      8          8           0        0.197091   -0.704364    3.938919
      9          8           0       -2.554379    3.198935    1.824256
     10          8           0       -2.153315   -1.191683   -2.558999
     11          8           0        5.580929    0.514600   -0.379783
     12          6           0        0.275736    0.717682   -0.187554
     13          6           0       -0.712371    1.833167    0.173837
     14          6           0        1.353767    1.072550   -1.271056
     15          6           0       -0.031595    3.220846    0.202626
     16          6           0       -0.448803   -0.636963   -0.484773
     17          6           0       -0.165246   -1.850209    0.442562
     18          6           0        2.010120    2.519750   -1.046279
     19          6           0        1.477505    3.217322    0.203712
     20          6           0        1.314141   -2.294282    0.384652
     21          6           0       -1.611978    2.389351   -0.949383
     22          6           0        2.566003    0.117441   -1.193357
     23          6           0       -0.586303   -1.620641    1.894451
     24          6           0        2.117332   -1.143078    0.994916
     25          6           0        0.837306    1.016902   -2.723759
     26          6           0        3.127606   -0.397711    0.164544
     27          6           0        0.479086   -1.025343    2.798401
     28          6           0        1.811165   -0.704433    2.212243
     29          6           0        1.549999   -3.554223    1.261389
     30          6           0        1.717480   -2.720332   -1.044089
     31          6           0        2.596805    0.301753    3.026955
     32          6           0       -2.155678    2.116038    2.166421
     33          6           0       -2.634095   -0.920979   -1.488419
     34          6           0       -2.531960    1.373377    3.416277
     35          6           0        5.400768   -0.661634   -0.540393
     36          6           0       -4.071765   -0.990630   -1.164514
     37          6           0        6.328293   -1.665821   -1.144132
     38          6           0       -4.935059   -1.422157   -2.158173
     39          6           0       -4.557746   -0.636499    0.082077
     40          6           0       -6.289915   -1.502666   -1.904182
     41          6           0       -5.913933   -0.714953    0.335035
     42          6           0       -6.778464   -1.148338   -0.656983
     43          1           0        0.796395    0.606312    0.735167
     44          1           0       -0.465103    3.877927    0.932236
     45          1           0       -0.227200   -0.970496   -1.475933
     46          1           0        3.079873    2.399693   -0.964390
     47          1           0        1.819078    2.731832    1.110196
     48          1           0        1.863331    4.228567    0.199867
     49          1           0       -1.719760    1.797144   -1.835318
     50          1           0       -2.546815    2.779300   -0.594653
     51          1           0       -0.883318   -2.564600    2.339007
     52          1           0       -1.439282   -0.964131    1.921249
     53          1           0        0.076705    1.760452   -2.879821
     54          1           0        1.651124    1.230508   -3.393477
     55          1           0        0.429327    0.049406   -2.975077
     56          1           0        3.496908    0.461496    0.699945
     57          1           0        2.593775   -3.833769    1.190999
     58          1           0        1.322894   -3.387341    2.304190
     59          1           0        0.955336   -4.381715    0.892228
     60          1           0        2.774032   -2.935014   -1.075389
     61          1           0        1.152804   -3.606197   -1.294464
     62          1           0        1.508230   -1.989175   -1.804236
     63          1           0       -1.174454   -3.595791    0.439811
     64          1           0        0.907165    3.683595   -2.179036
     65          1           0        2.251194    1.316765    2.854159
     66          1           0        2.434589    0.085436    4.073239
     67          1           0        3.656497    0.251759    2.822877
     68          1           0       -2.959223    2.064248    4.126203
     69          1           0       -3.276745    0.623638    3.168914
     70          1           0       -1.672862    0.865808    3.828932
     71          1           0        5.902056   -1.990297   -2.086164
     72          1           0        6.411036   -2.526867   -0.495286
     73          1           0        7.294535   -1.218162   -1.311988
     74          1           0       -4.531254   -1.688410   -3.113246
     75          1           0       -3.873986   -0.301798    0.831184
     76          1           0       -6.960549   -1.836479   -2.669910
     77          1           0       -6.297212   -0.438961    1.296805
     78          1           0       -7.830240   -1.208135   -0.458844
 ---------------------------------------------------------------------

 The electronic state is 1-A.
 Alpha  occ. eigenvalues --  -20.52088 -20.51093 -20.50953 -20.47586 -20.47528
 Alpha  occ. eigenvalues --  -20.47467 -20.47095 -20.47071 -20.46111 -20.45851
 Alpha  occ. eigenvalues --  -20.42622 -11.35603 -11.34490 -11.34477 -11.30283
 Alpha  occ. eigenvalues --  -11.30091 -11.27922 -11.27422 -11.26802 -11.25892
 Alpha  occ. eigenvalues --  -11.24589 -11.24163 -11.23786 -11.23190 -11.21725
 Alpha  occ. eigenvalues --  -11.21701 -11.21246 -11.20958 -11.20517 -11.20226
 Alpha  occ. eigenvalues --  -11.20164 -11.19917 -11.19466 -11.19317 -11.19309
 Alpha  occ. eigenvalues --  -11.19042 -11.18536 -11.18352 -11.18215 -11.17984
 Alpha  occ. eigenvalues --  -11.15863 -11.14740  -1.48637  -1.48208  -1.47466
 Alpha  occ. eigenvalues --   -1.42787  -1.42349  -1.40188  -1.38807  -1.38170
 Alpha  occ. eigenvalues --   -1.37635  -1.36774  -1.33966  -1.19555  -1.18564
 Alpha  occ. eigenvalues --   -1.14597  -1.10438  -1.07676  -1.07129  -1.06402
 Alpha  occ. eigenvalues --   -1.05768  -1.04674  -1.04070  -1.02461  -1.00837
 Alpha  occ. eigenvalues --   -1.00200  -0.95986  -0.95140  -0.94204  -0.93553
 Alpha  occ. eigenvalues --   -0.90772  -0.88378  -0.87112  -0.85716  -0.84908
 Alpha  occ. eigenvalues --   -0.83487  -0.81931  -0.80417  -0.78709  -0.78299
 Alpha  occ. eigenvalues --   -0.76149  -0.75112  -0.74163  -0.73167  -0.71909
 Alpha  occ. eigenvalues --   -0.70946  -0.70351  -0.69996  -0.69492  -0.69018
 Alpha  occ. eigenvalues --   -0.68584  -0.68134  -0.68037  -0.66811  -0.66673
 Alpha  occ. eigenvalues --   -0.66363  -0.65245  -0.65043  -0.64419  -0.64171
 Alpha  occ. eigenvalues --   -0.63928  -0.63600  -0.63316  -0.63135  -0.61904
 Alpha  occ. eigenvalues --   -0.61636  -0.61418  -0.60777  -0.60544  -0.59964
 Alpha  occ. eigenvalues --   -0.59679  -0.58850  -0.58608  -0.58036  -0.57425
 Alpha  occ. eigenvalues --   -0.57005  -0.56487  -0.56218  -0.56160  -0.55554
 Alpha  occ. eigenvalues --   -0.55397  -0.54975  -0.54638  -0.54328  -0.53620
 Alpha  occ. eigenvalues --   -0.53251  -0.52739  -0.52497  -0.52320  -0.52092
 Alpha  occ. eigenvalues --   -0.51772  -0.51555  -0.51238  -0.51061  -0.50716
 Alpha  occ. eigenvalues --   -0.50164  -0.49112  -0.48736  -0.48138  -0.47977
 Alpha  occ. eigenvalues --   -0.47142  -0.45988  -0.45640  -0.45131  -0.45099
 Alpha  occ. eigenvalues --   -0.44287  -0.43993  -0.43581  -0.42733  -0.41741
 Alpha  occ. eigenvalues --   -0.41409  -0.39709  -0.36291  -0.36110  -0.35905
 Alpha virt. eigenvalues --    0.06408   0.08706   0.13277   0.14122   0.16482
 Alpha virt. eigenvalues --    0.18055   0.19600   0.20913   0.21872   0.22977
 Alpha virt. eigenvalues --    0.23521   0.23750   0.25638   0.26259   0.26667

 Mulliken charges:
               1
     1  O   -0.638181
     2  O   -0.738060
     3  O   -0.727952
     4  O   -0.685624
     5  O   -0.695870
     6  O   -0.689744
     7  O   -0.558186
     8  O   -0.591209
     9  O   -0.606209
    10  O   -0.624680
    11  O   -0.611905
    12  C   -0.329528
    13  C    0.188100
    14  C   -0.387432
    15  C    0.118871
    16  C    0.138459
    17  C    0.292826
    18  C    0.174205
    19  C   -0.518425
    20  C   -0.324765
    21  C   -0.051488
    22  C    0.663762
    23  C   -0.528504
    24  C    0.053397
    25  C   -0.524685
    26  C   -0.046412
    27  C    0.594939
    28  C   -0.159291
    29  C   -0.511388
    30  C   -0.555313
    31  C   -0.606133
    32  C    0.865432
    33  C    1.016371
    34  C   -0.710726
    35  C    0.876668
    36  C   -0.262894
    37  C   -0.685184
    38  C   -0.179250
    39  C   -0.204803
    40  C   -0.242888
    41  C   -0.242423
    42  C   -0.219181
    43  H    0.316656
    44  H    0.279846
    45  H    0.319859
    46  H    0.266842
    47  H    0.223317
    48  H    0.267210
    49  H    0.233872
    50  H    0.271515
    51  H    0.244186
    52  H    0.316304
    53  H    0.215232
    54  H    0.269206
    55  H    0.214559
    56  H    0.297815
    57  H    0.235583
    58  H    0.208248
    59  H    0.195702
    60  H    0.243684
    61  H    0.229549
    62  H    0.220231
    63  H    0.388998
    64  H    0.423559
    65  H    0.222842
    66  H    0.264878
    67  H    0.226732
    68  H    0.254714
    69  H    0.246684
    70  H    0.288270
    71  H    0.273295
    72  H    0.249329
    73  H    0.251344
    74  H    0.287867
    75  H    0.275930
    76  H    0.252027
    77  H    0.246535
    78  H    0.252881
 Sum of Mulliken charges =  -0.00000

 Dipole moment (field-independent basis, Debye):
    X=             -2.7378    Y=             -5.5446    Z=              4.7388  Tot=              7.7906
 Quadrupole moment (field-independent basis, Debye-Ang):
   XX=           -228.7053   YY=           -256.9980   ZZ=           -265.7589
   XY=             -5.7348   XZ=              6.4841   YZ=              6.3311

 Normal termination of Gaussian 16 at Wed Apr  5 18:19:34 2023.
