 Gaussian 16, Revision C.01,
 Gaussian 16:  ES64L-G16RevC.01  3-Jul-2019

 -----------------------------------------
 # B3LYP/3-21G* Geom=Chk Guess=CopyChk Opt
 -----------------------------------------

 ---
 CLR
 ---
 Structure from the checkpoint file:  "6WZ3_small_opt3.chk"
 Charge =  0 Multiplicity = 1

 SCF Done:  E(RB3LYP) =  -2019.25071673     A.U. after   14 cycles
 SCF Done:  E(RB3LYP) =  -2019.26777332     A.U. after   13 cycles
 SCF Done:  E(RB3LYP) =  -2019.25407104     A.U. after   16 cycles
 SCF Done:  E(RB3LYP) =  -2019.26660126     A.U. after   14 cycles
 SCF Done:  E(RB3LYP) =  -2019.26902939     A.U. after   10 cycles
 SCF Done:  E(RB3LYP) =  -2019.26880294     A.U. after   14 cycles
 SCF Done:  E(RB3LYP) =  -2019.27060549     A.U. after   13 cycles
 SCF Done:  E(RB3LYP) =  -2019.27049999     A.U. after   13 cycles
 SCF Done:  E(RB3LYP) =  -2019.27066211     A.U. after   13 cycles
 SCF Done:  E(RB3LYP) =  -2019.27122660     A.U. after   12 cycles
 SCF Done:  E(RB3LYP) =  -2019.27599670     A.U. after   12 cycles
 SCF Done:  E(RB3LYP) =  -2019.27602618     A.U. after   12 cycles
 SCF Done:  E(RB3LYP) =  -2019.27603974     A.U. after   12 cycles
 SCF Done:  E(RB3LYP) =  -2019.27604234     A.U. after    8 cycles
 SCF Done:  E(RB3LYP) =  -2019.27604294     A.U. after    9 cycles
 SCF Done:  E(RB3LYP) =  -2019.27604384     A.U. after    9 cycles
 SCF Done:  E(RB3LYP) =  -2019.27604325     A.U. after    8 cycles
 SCF Done:  E(RB3LYP) =  -2019.27604348     A.U. after    7 cycles
 SCF Done:  E(RB3LYP) =  -2019.27604382     A.U. after    8 cycles
 SCF Done:  E(RB3LYP) =  -2019.27604349     A.U. after    7 cycles
 Optimization completed.
    -- Stationary point found.

                         Standard orientation:
 ---------------------------------------------------------------------
 Center     Atomic      Atomic             Coordinates (Angstroms)
 Number     Number       Type             X           Y           Z
 ---------------------------------------------------------------------
      1          8           0       -0.927380    3.515969    0.080783
      2          8           0       -1.368651    0.560216    1.761895
      3          8           0       -1.883587   -0.732262   -0.542828
      4          8           0       -0.632689   -3.098672   -0.886858
      5          8           0        1.441401    3.900328   -1.038750
      6          8           0        4.379084   -0.873767   -0.569961
      7          8           0        3.087791    0.599149   -2.255623
      8          8           0        0.374462   -1.690905    3.628110
      9          8           0       -2.688447    2.167175    2.759480
     10          8           0       -2.097760   -0.120778   -2.763019
     11          8           0        5.343047    1.204271   -0.362060
     12          6           0        0.206797    0.590540    0.010327
     13          6           0       -0.843914    1.460547    0.721662
     14          6           0        1.194105    1.352190   -0.943939
     15          6           0       -0.228095    2.797891    1.229828
     16          6           0       -0.389590   -0.703950   -0.646532
     17          6           0        0.049562   -2.090430   -0.075473
     18          6           0        1.777703    2.721795   -0.276969
     19          6           0        1.281875    2.905298    1.166798
     20          6           0        1.567229   -2.355039   -0.279970
     21          6           0       -1.812519    2.303041   -0.148816
     22          6           0        2.477021    0.527936   -1.189765
     23          6           0       -0.324913   -2.294336    1.401727
     24          6           0        2.286514   -1.331455    0.604425
     25          6           0        0.606468    1.724040   -2.323260
     26          6           0        3.160380   -0.271753   -0.009977
     27          6           0        0.685418   -1.786520    2.425443
     28          6           0        1.984557   -1.255740    1.924813
     29          6           0        1.920560   -3.788500    0.221975
     30          6           0        1.953603   -2.329513   -1.779343
     31          6           0        2.738747   -0.430343    2.948048
     32          6           0       -2.245224    1.025018    2.744177
     33          6           0       -2.615876   -0.429244   -1.691973
     34          6           0       -2.528127   -0.097533    3.715173
     35          6           0        5.398773    0.062839   -0.799671
     36          6           0       -4.068274   -0.521905   -1.432588
     37          6           0        6.480445   -0.576792   -1.627031
     38          6           0       -4.930164   -0.327994   -2.518765
     39          6           0       -4.581817   -0.777306   -0.155025
     40          6           0       -6.307574   -0.399994   -2.330589
     41          6           0       -5.961280   -0.844479    0.029315
     42          6           0       -6.823436   -0.659392   -1.056468
     43          1           0        0.800026    0.250320    0.848116
     44          1           0       -0.659111    3.122602    2.173743
     45          1           0       -0.177600   -0.722014   -1.711699
     46          1           0        2.870417    2.664677   -0.295993
     47          1           0        1.709114    2.159743    1.846645
     48          1           0        1.610442    3.894528    1.501300
     49          1           0       -1.876148    2.048777   -1.203370
     50          1           0       -2.783740    2.455016    0.316367
     51          1           0       -0.449287   -3.372473    1.551927
     52          1           0       -1.275169   -1.803508    1.613475
     53          1           0       -0.081468    2.560189   -2.227303
     54          1           0        1.422039    2.031434   -2.976149
     55          1           0        0.074894    0.889568   -2.781443
     56          1           0        3.454657    0.469681    0.737067
     57          1           0        2.966207   -4.000617   -0.022543
     58          1           0        1.798188   -3.883969    1.302847
     59          1           0        1.270633   -4.503562   -0.287661
     60          1           0        3.040539   -2.363032   -1.872098
     61          1           0        1.499598   -3.201393   -2.254057
     62          1           0        1.603699   -1.445490   -2.310578
     63          1           0       -1.603417   -2.892877   -0.808494
     64          1           0        0.461341    4.044576   -0.850041
     65          1           0        2.399315    0.613726    2.962319
     66          1           0        2.519359   -0.846950    3.934653
     67          1           0        3.816358   -0.446808    2.770206
     68          1           0       -2.952815    0.316878    4.630007
     69          1           0       -3.258932   -0.782955    3.266924
     70          1           0       -1.613575   -0.664369    3.914369
     71          1           0        6.107450   -0.670197   -2.653284
     72          1           0        6.698317   -1.579210   -1.251829
     73          1           0        7.372844    0.048433   -1.616336
     74          1           0       -4.498945   -0.124041   -3.491031
     75          1           0       -3.896010   -0.903205    0.671108
     76          1           0       -6.978222   -0.253097   -3.168442
     77          1           0       -6.367156   -1.036540    1.015275
     78          1           0       -7.895706   -0.713143   -0.908686
 ---------------------------------------------------------------------

 The electronic state is 1-A.
 Alpha  occ. eigenvalues --  -19.10808 -19.09965 -19.08719 -19.06309 -19.05975
 Alpha  occ. eigenvalues --  -19.05161 -19.05032 -19.04759 -19.04172 -19.04072
 Alpha  occ. eigenvalues --  -19.00761 -10.28366 -10.27817 -10.26637 -10.23234
 Alpha  occ. eigenvalues --  -10.22906 -10.22333 -10.21004 -10.20629 -10.20454
 Alpha  occ. eigenvalues --  -10.19520 -10.18912 -10.18475 -10.17300 -10.16858
 Alpha  occ. eigenvalues --  -10.16118 -10.15998 -10.15952 -10.15905 -10.15828
 Alpha  occ. eigenvalues --  -10.15721 -10.15708 -10.15535 -10.15422 -10.13891
 Alpha  occ. eigenvalues --  -10.13805 -10.13674 -10.13418 -10.13129 -10.11584
 Alpha  occ. eigenvalues --  -10.10745 -10.09752  -1.12157  -1.11429  -1.10952
 Alpha  occ. eigenvalues --   -1.06742  -1.05820  -1.05079  -1.04677  -1.03248
 Alpha  occ. eigenvalues --   -1.02465  -1.02089  -0.99389  -0.89163  -0.88669
 Alpha  occ. eigenvalues --   -0.85140  -0.81621  -0.79899  -0.79477  -0.78744
 Alpha  occ. eigenvalues --   -0.78551  -0.77745  -0.76985  -0.75376  -0.74253
 Alpha  occ. eigenvalues --   -0.73745  -0.70182  -0.69355  -0.68824  -0.68363
 Alpha  occ. eigenvalues --   -0.67140  -0.64975  -0.64203  -0.63765  -0.62648
 Alpha  occ. eigenvalues --   -0.61263  -0.60201  -0.58553  -0.58106  -0.56801
 Alpha  occ. eigenvalues --   -0.56385  -0.54560  -0.53638  -0.52679  -0.51753
 Alpha  occ. eigenvalues --   -0.51697  -0.51354  -0.50706  -0.50384  -0.49519
 Alpha  occ. eigenvalues --   -0.48824  -0.48569  -0.48381  -0.48082  -0.47633
 Alpha  occ. eigenvalues --   -0.47144  -0.47074  -0.46848  -0.46402  -0.46199
 Alpha  occ. eigenvalues --   -0.45752  -0.45553  -0.45475  -0.45408  -0.44668
 Alpha  occ. eigenvalues --   -0.44469  -0.44143  -0.43437  -0.43173  -0.42949
 Alpha  occ. eigenvalues --   -0.42363  -0.42122  -0.41642  -0.41424  -0.41068
 Alpha  occ. eigenvalues --   -0.40613  -0.40185  -0.39748  -0.39386  -0.39037
 Alpha  occ. eigenvalues --   -0.38950  -0.38752  -0.38700  -0.38305  -0.38095
 Alpha  occ. eigenvalues --   -0.38008  -0.37606  -0.37400  -0.36789  -0.36548
 Alpha  occ. eigenvalues --   -0.36328  -0.35944  -0.35735  -0.35438  -0.34928
 Alpha  occ. eigenvalues --   -0.34023  -0.33483  -0.32927  -0.32582  -0.32073
 Alpha  occ. eigenvalues --   -0.31863  -0.30169  -0.30135  -0.29755  -0.29091
 Alpha  occ. eigenvalues --   -0.28346  -0.28211  -0.28024  -0.27988  -0.27709
 Alpha  occ. eigenvalues --   -0.26683  -0.25724  -0.25030  -0.24797  -0.23857
 Alpha virt. eigenvalues --   -0.08189  -0.06778  -0.03113  -0.02281  -0.01062
 Alpha virt. eigenvalues --    0.00371   0.02823   0.03601   0.04151   0.06004
 Alpha virt. eigenvalues --    0.07995   0.08306   0.09612   0.10016   0.10555

 Mulliken charges:
               1
     1  O   -0.466632
     2  O   -0.524879
     3  O   -0.523363
     4  O   -0.552086
     5  O   -0.557690
     6  O   -0.491814
     7  O   -0.439400
     8  O   -0.473133
     9  O   -0.475790
    10  O   -0.483562
    11  O   -0.481757
    12  C   -0.275061
    13  C    0.110301
    14  C   -0.270074
    15  C    0.066858
    16  C    0.035955
    17  C    0.211045
    18  C    0.074694
    19  C   -0.473300
    20  C   -0.227356
    21  C   -0.119592
    22  C    0.537138
    23  C   -0.472546
    24  C    0.082930
    25  C   -0.528593
    26  C   -0.117645
    27  C    0.457146
    28  C   -0.065204
    29  C   -0.493929
    30  C   -0.548409
    31  C   -0.619294
    32  C    0.642326
    33  C    0.691562
    34  C   -0.664480
    35  C    0.656021
    36  C   -0.109146
    37  C   -0.637551
    38  C   -0.159801
    39  C   -0.191365
    40  C   -0.182445
    41  C   -0.179589
    42  C   -0.172509
    43  H    0.282988
    44  H    0.241929
    45  H    0.270164
    46  H    0.238495
    47  H    0.218546
    48  H    0.236645
    49  H    0.221791
    50  H    0.242465
    51  H    0.245131
    52  H    0.251256
    53  H    0.189870
    54  H    0.230932
    55  H    0.205573
    56  H    0.256074
    57  H    0.200712
    58  H    0.188075
    59  H    0.215480
    60  H    0.215117
    61  H    0.215260
    62  H    0.198920
    63  H    0.342228
    64  H    0.361458
    65  H    0.221358
    66  H    0.236483
    67  H    0.212225
    68  H    0.228910
    69  H    0.225762
    70  H    0.263979
    71  H    0.253330
    72  H    0.230552
    73  H    0.228344
    74  H    0.221823
    75  H    0.214896
    76  H    0.202985
    77  H    0.199138
    78  H    0.203124
 Sum of Mulliken charges =  -0.00000

 Dipole moment (field-independent basis, Debye):
    X=             -3.5234    Y=             -4.3341    Z=              1.8163  Tot=              5.8735
 Quadrupole moment (field-independent basis, Debye-Ang):
   XX=           -212.0689   YY=           -267.2086   ZZ=           -254.0134
   XY=             -3.6722   XZ=              6.9623   YZ=              5.0261

 Normal termination of Gaussian 16 at Wed Apr  5 19:36:05 2023.
