 Gaussian 16, Revision C.01,
 Gaussian 16:  ES64L-G16RevC.01  3-Jul-2019

 --------------------------------------
 # B3LYP/6-31G* Geom=Chk Guess=Read Opt
 --------------------------------------

 ---
 CLR
 ---
 Structure from the checkpoint file:  "6WZ3_small_opt4.chk"
 Charge =  0 Multiplicity = 1

 SCF Done:  E(RB3LYP) =  -2031.53496256     A.U. after   13 cycles
 SCF Done:  E(RB3LYP) =  -2031.53917050     A.U. after   13 cycles
 SCF Done:  E(RB3LYP) =  -2031.54988892     A.U. after   13 cycles
 SCF Done:  E(RB3LYP) =  -2031.55197414     A.U. after   14 cycles
 SCF Done:  E(RB3LYP) =  -2031.54568063     A.U. after   13 cycles
 SCF Done:  E(RB3LYP) =  -2031.54720088     A.U. after   13 cycles
 SCF Done:  E(RB3LYP) =  -2031.55463595     A.U. after   10 cycles
 SCF Done:  E(RB3LYP) =  -2031.55650269     A.U. after   14 cycles
 SCF Done:  E(RB3LYP) =  -2031.55607496     A.U. after   12 cycles
 SCF Done:  E(RB3LYP) =  -2031.55734783     A.U. after   12 cycles
 SCF Done:  E(RB3LYP) =  -2031.55812486     A.U. after   10 cycles
 SCF Done:  E(RB3LYP) =  -2031.55815904     A.U. after   10 cycles
 SCF Done:  E(RB3LYP) =  -2031.55816176     A.U. after    9 cycles
 SCF Done:  E(RB3LYP) =  -2031.55816496     A.U. after    9 cycles
 SCF Done:  E(RB3LYP) =  -2031.55816644     A.U. after    8 cycles
 SCF Done:  E(RB3LYP) =  -2031.55816699     A.U. after    7 cycles
 SCF Done:  E(RB3LYP) =  -2031.55816730     A.U. after    7 cycles
 SCF Done:  E(RB3LYP) =  -2031.55816739     A.U. after    7 cycles
 SCF Done:  E(RB3LYP) =  -2031.55816747     A.U. after    6 cycles
 SCF Done:  E(RB3LYP) =  -2031.55816747     A.U. after    6 cycles
 Optimization completed.
    -- Stationary point found.

                         Standard orientation:
 ---------------------------------------------------------------------
 Center     Atomic      Atomic             Coordinates (Angstroms)
 Number     Number       Type             X           Y           Z
 ---------------------------------------------------------------------
      1          8           0       -0.489284    3.813385   -0.037608
      2          8           0       -1.234446    1.201981    1.881678
      3          8           0       -1.938823   -0.426114   -0.343536
      4          8           0       -0.956481   -2.846751   -0.759124
      5          8           0        2.045412    3.768055   -1.207094
      6          8           0        4.308640   -1.203391   -0.610022
      7          8           0        3.159995    0.434108   -2.266425
      8          8           0        0.216201   -0.905406    3.507810
      9          8           0       -3.459010    1.475361    1.430389
     10          8           0       -2.262393    0.338021   -2.454881
     11          8           0        5.616593    0.611784   -0.236375
     12          6           0        0.257222    0.754543    0.039003
     13          6           0       -0.667679    1.821683    0.689898
     14          6           0        1.354103    1.341149   -0.961526
     15          6           0        0.105973    3.098069    1.085200
     16          6           0       -0.493708   -0.507989   -0.534447
     17          6           0       -0.140487   -1.952254    0.005694
     18          6           0        2.111846    2.647215   -0.351983
     19          6           0        1.614039    3.034400    1.046025
     20          6           0        1.335057   -2.363443   -0.280458
     21          6           0       -1.515592    2.785318   -0.173474
     22          6           0        2.565996    0.384838   -1.211002
     23          6           0       -0.443486   -2.179157    1.506244
     24          6           0        2.206573   -1.432215    0.581307
     25          6           0        0.791519    1.700321   -2.353401
     26          6           0        3.184570   -0.490484   -0.069996
     27          6           0        0.679713   -1.851997    2.531585
     28          6           0        1.974795   -1.332105    1.909089
     29          6           0        1.593009   -3.828414    0.172878
     30          6           0        1.634878   -2.361511   -1.797232
     31          6           0        2.882481   -0.622508    2.891812
     32          6           0       -2.570030    1.157123    2.182111
     33          6           0       -2.711271   -0.139665   -1.432184
     34          6           0       -2.768281    0.673931    3.600586
     35          6           0        5.465771   -0.492033   -0.711492
     36          6           0       -4.144409   -0.493534   -1.241513
     37          6           0        6.502935   -1.269283   -1.479776
     38          6           0       -5.024029   -0.200230   -2.294150
     39          6           0       -4.628466   -1.132165   -0.090875
     40          6           0       -6.370345   -0.539156   -2.196097
     41          6           0       -5.976049   -1.474089    0.001417
     42          6           0       -6.847874   -1.178010   -1.048682
     43          1           0        0.818476    0.415398    0.904803
     44          1           0       -0.269050    3.501351    2.036020
     45          1           0       -0.346461   -0.544195   -1.609416
     46          1           0        3.180633    2.422471   -0.289807
     47          1           0        1.948760    2.321312    1.811687
     48          1           0        2.053703    4.004596    1.301567
     49          1           0       -1.695337    2.504734   -1.211300
     50          1           0       -2.443039    3.103192    0.298922
     51          1           0       -0.704920   -3.237079    1.593409
     52          1           0       -1.338190   -1.621247    1.795021
     53          1           0        0.032431    2.478733   -2.291493
     54          1           0        1.597577    2.066178   -2.985181
     55          1           0        0.337828    0.837820   -2.844533
     56          1           0        3.564939    0.224216    0.663607
     57          1           0        0.891153   -2.746648    3.130226
     58          1           0        2.617609   -4.105791   -0.096536
     59          1           0        1.494602   -3.971479    1.251715
     60          1           0        0.903066   -4.509717   -0.332161
     61          1           0        2.696061   -2.547188   -1.977704
     62          1           0        1.053830   -3.159932   -2.264661
     63          1           0        1.374824   -1.438743   -2.315265
     64          1           0       -1.880639   -2.632203   -0.554479
     65          1           0        1.123822    4.085295   -1.166014
     66          1           0        2.529147    0.381754    3.156640
     67          1           0        2.902170   -1.183632    3.832860
     68          1           0        3.909140   -0.541898    2.527596
     69          1           0       -0.072746   -0.109592    3.025688
     70          1           0       -3.821068    0.429535    3.747478
     71          1           0       -2.134372   -0.187252    3.828504
     72          1           0       -2.490370    1.476096    4.294795
     73          1           0        6.234648   -1.253638   -2.542036
     74          1           0        6.526618   -2.314120   -1.157579
     75          1           0        7.480798   -0.804906   -1.347059
     76          1           0       -4.631110    0.288665   -3.179167
     77          1           0       -3.955274   -1.348785    0.729954
     78          1           0       -7.047247   -0.308405   -3.013745
     79          1           0       -6.347270   -1.968582    0.894616
     80          1           0       -7.898616   -1.444666   -0.972844
 ---------------------------------------------------------------------

 The electronic state is 1-A.
 Alpha  occ. eigenvalues --  -19.21707 -19.20548 -19.19161 -19.16925 -19.15659
 Alpha  occ. eigenvalues --  -19.15388 -19.15354 -19.14950 -19.14705 -19.13718
 Alpha  occ. eigenvalues --  -19.13510 -10.34096 -10.33071 -10.31831 -10.28402
 Alpha  occ. eigenvalues --  -10.28323 -10.26191 -10.26036 -10.26018 -10.25854
 Alpha  occ. eigenvalues --  -10.25345 -10.24872 -10.24696 -10.22494 -10.22425
 Alpha  occ. eigenvalues --  -10.21612 -10.21375 -10.21121 -10.21035 -10.20892
 Alpha  occ. eigenvalues --  -10.20831 -10.20670 -10.20667 -10.20602 -10.20530
 Alpha  occ. eigenvalues --  -10.20081 -10.19417 -10.19349 -10.19234 -10.17697
 Alpha  occ. eigenvalues --  -10.16963 -10.16503  -1.11935  -1.11134  -1.10400
 Alpha  occ. eigenvalues --   -1.06493  -1.05025  -1.03873  -1.03663  -1.02712
 Alpha  occ. eigenvalues --   -1.01992  -1.01560  -1.01412  -0.87226  -0.86618
 Alpha  occ. eigenvalues --   -0.84135  -0.80222  -0.79076  -0.78737  -0.78187
 Alpha  occ. eigenvalues --   -0.77558  -0.76171  -0.75864  -0.75006  -0.73681
 Alpha  occ. eigenvalues --   -0.72660  -0.69545  -0.68710  -0.68450  -0.67873
 Alpha  occ. eigenvalues --   -0.67152  -0.64813  -0.63950  -0.63096  -0.62178
 Alpha  occ. eigenvalues --   -0.61182  -0.60592  -0.57848  -0.57653  -0.57168
 Alpha  occ. eigenvalues --   -0.55346  -0.54844  -0.54231  -0.52783  -0.52296
 Alpha  occ. eigenvalues --   -0.51501  -0.51213  -0.50504  -0.49861  -0.49801
 Alpha  occ. eigenvalues --   -0.48852  -0.48259  -0.48004  -0.47855  -0.47735
 Alpha  occ. eigenvalues --   -0.47235  -0.47167  -0.46872  -0.46771  -0.46028
 Alpha  occ. eigenvalues --   -0.45683  -0.45540  -0.45269  -0.45020  -0.44364
 Alpha  occ. eigenvalues --   -0.44132  -0.43762  -0.43570  -0.43155  -0.42879
 Alpha  occ. eigenvalues --   -0.42448  -0.42183  -0.41853  -0.41413  -0.41177
 Alpha  occ. eigenvalues --   -0.40884  -0.40659  -0.40391  -0.39509  -0.38909
 Alpha  occ. eigenvalues --   -0.38635  -0.38367  -0.38106  -0.37696  -0.37565
 Alpha  occ. eigenvalues --   -0.37384  -0.37037  -0.36922  -0.36812  -0.36377
 Alpha  occ. eigenvalues --   -0.36141  -0.35978  -0.35730  -0.35650  -0.35293
 Alpha  occ. eigenvalues --   -0.34707  -0.34280  -0.33421  -0.33190  -0.32945
 Alpha  occ. eigenvalues --   -0.32234  -0.31598  -0.31236  -0.30670  -0.30005
 Alpha  occ. eigenvalues --   -0.29236  -0.28801  -0.28367  -0.27727  -0.27324
 Alpha  occ. eigenvalues --   -0.27012  -0.26815  -0.26595  -0.26495  -0.25167
 Alpha  occ. eigenvalues --   -0.23735
 Alpha virt. eigenvalues --   -0.05770  -0.03409  -0.01746  -0.01235  -0.00815
 Alpha virt. eigenvalues --    0.01202   0.04249   0.04769   0.05291   0.06300
 Alpha virt. eigenvalues --    0.08062   0.08105   0.08499   0.09360   0.09646

 Mulliken charges:
               1
     1  O   -0.538257
     2  O   -0.531900
     3  O   -0.537829
     4  O   -0.659374
     5  O   -0.629526
     6  O   -0.463232
     7  O   -0.448695
     8  O   -0.659019
     9  O   -0.456701
    10  O   -0.487470
    11  O   -0.472128
    12  C   -0.181180
    13  C    0.249104
    14  C   -0.040692
    15  C    0.144548
    16  C    0.103024
    17  C    0.310545
    18  C    0.101238
    19  C   -0.327436
    20  C    0.005703
    21  C   -0.056139
    22  C    0.427346
    23  C   -0.375152
    24  C    0.103325
    25  C   -0.464463
    26  C   -0.040246
    27  C    0.097219
    28  C    0.032895
    29  C   -0.457578
    30  C   -0.501868
    31  C   -0.509295
    32  C    0.628673
    33  C    0.605044
    34  C   -0.553383
    35  C    0.630279
    36  C    0.065053
    37  C   -0.531272
    38  C   -0.149435
    39  C   -0.156624
    40  C   -0.137089
    41  C   -0.136352
    42  C   -0.114868
    43  H    0.146604
    44  H    0.139292
    45  H    0.187149
    46  H    0.179796
    47  H    0.151409
    48  H    0.176379
    49  H    0.187330
    50  H    0.186722
    51  H    0.165096
    52  H    0.158973
    53  H    0.143679
    54  H    0.195952
    55  H    0.169813
    56  H    0.190936
    57  H    0.153458
    58  H    0.153328
    59  H    0.140363
    60  H    0.168035
    61  H    0.170672
    62  H    0.170380
    63  H    0.161262
    64  H    0.400501
    65  H    0.420543
    66  H    0.162090
    67  H    0.170893
    68  H    0.170945
    69  H    0.417259
    70  H    0.186033
    71  H    0.203689
    72  H    0.188369
    73  H    0.200026
    74  H    0.176931
    75  H    0.182471
    76  H    0.167749
    77  H    0.146212
    78  H    0.142856
    79  H    0.138502
    80  H    0.141506
 Sum of Mulliken charges =  -0.00000

 Dipole moment (field-independent basis, Debye):
    X=             -3.8830    Y=             -3.0871    Z=              4.1224  Tot=              6.4500
 Quadrupole moment (field-independent basis, Debye-Ang):
   XX=           -230.6514   YY=           -251.4270   ZZ=           -247.3495
   XY=             -8.0890   XZ=              3.4072   YZ=              6.9439

 Normal termination of Gaussian 16 at Sun Mar 26 18:43:49 2023.
